;;
;; Generated by CHARMM-GUI FF-Converter
;;
;; Correspondance:
;; jul316@lehigh.edu or wonpil@lehigh.edu
;;
;; GROMACS topology file for PROA
;;


[ moleculetype ]
; name	nrexcl
PROA	     3

[ atoms ]
; nr	type	resnr	residu	atom	cgnr	charge	mass
     1        NH3      2      GLY      N      1    -0.300000    14.0070   ; qtot -0.300
     2         HC      2      GLY    HT1      2     0.330000     1.0080   ; qtot  0.030
     3         HC      2      GLY    HT2      3     0.330000     1.0080   ; qtot  0.360
     4         HC      2      GLY    HT3      4     0.330000     1.0080   ; qtot  0.690
     5        CT2      2      GLY     CA      5     0.130000    12.0110   ; qtot  0.820
     6        HB2      2      GLY    HA1      6     0.090000     1.0080   ; qtot  0.910
     7        HB2      2      GLY    HA2      7     0.090000     1.0080   ; qtot  1.000
     8          C      2      GLY      C      8     0.510000    12.0110   ; qtot  1.510
     9          O      2      GLY      O      9    -0.510000    15.9994   ; qtot  1.000
    10        NH1      3      ALA      N     10    -0.470000    14.0070   ; qtot  0.530
    11          H      3      ALA     HN     11     0.310000     1.0080   ; qtot  0.840
    12        CT1      3      ALA     CA     12     0.070000    12.0110   ; qtot  0.910
    13        HB1      3      ALA     HA     13     0.090000     1.0080   ; qtot  1.000
    14        CT3      3      ALA     CB     14    -0.270000    12.0110   ; qtot  0.730
    15        HA3      3      ALA    HB1     15     0.090000     1.0080   ; qtot  0.820
    16        HA3      3      ALA    HB2     16     0.090000     1.0080   ; qtot  0.910
    17        HA3      3      ALA    HB3     17     0.090000     1.0080   ; qtot  1.000
    18          C      3      ALA      C     18     0.510000    12.0110   ; qtot  1.510
    19          O      3      ALA      O     19    -0.510000    15.9994   ; qtot  1.000
    20        NH1      4      LEU      N     20    -0.470000    14.0070   ; qtot  0.530
    21          H      4      LEU     HN     21     0.310000     1.0080   ; qtot  0.840
    22        CT1      4      LEU     CA     22     0.070000    12.0110   ; qtot  0.910
    23        HB1      4      LEU     HA     23     0.090000     1.0080   ; qtot  1.000
    24        CT2      4      LEU     CB     24    -0.180000    12.0110   ; qtot  0.820
    25        HA2      4      LEU    HB1     25     0.090000     1.0080   ; qtot  0.910
    26        HA2      4      LEU    HB2     26     0.090000     1.0080   ; qtot  1.000
    27        CT1      4      LEU     CG     27    -0.090000    12.0110   ; qtot  0.910
    28        HA1      4      LEU     HG     28     0.090000     1.0080   ; qtot  1.000
    29        CT3      4      LEU    CD1     29    -0.270000    12.0110   ; qtot  0.730
    30        HA3      4      LEU   HD11     30     0.090000     1.0080   ; qtot  0.820
    31        HA3      4      LEU   HD12     31     0.090000     1.0080   ; qtot  0.910
    32        HA3      4      LEU   HD13     32     0.090000     1.0080   ; qtot  1.000
    33        CT3      4      LEU    CD2     33    -0.270000    12.0110   ; qtot  0.730
    34        HA3      4      LEU   HD21     34     0.090000     1.0080   ; qtot  0.820
    35        HA3      4      LEU   HD22     35     0.090000     1.0080   ; qtot  0.910
    36        HA3      4      LEU   HD23     36     0.090000     1.0080   ; qtot  1.000
    37          C      4      LEU      C     37     0.510000    12.0110   ; qtot  1.510
    38          O      4      LEU      O     38    -0.510000    15.9994   ; qtot  1.000
    39        NH1      5      ALA      N     39    -0.470000    14.0070   ; qtot  0.530
    40          H      5      ALA     HN     40     0.310000     1.0080   ; qtot  0.840
    41        CT1      5      ALA     CA     41     0.070000    12.0110   ; qtot  0.910
    42        HB1      5      ALA     HA     42     0.090000     1.0080   ; qtot  1.000
    43        CT3      5      ALA     CB     43    -0.270000    12.0110   ; qtot  0.730
    44        HA3      5      ALA    HB1     44     0.090000     1.0080   ; qtot  0.820
    45        HA3      5      ALA    HB2     45     0.090000     1.0080   ; qtot  0.910
    46        HA3      5      ALA    HB3     46     0.090000     1.0080   ; qtot  1.000
    47          C      5      ALA      C     47     0.510000    12.0110   ; qtot  1.510
    48          O      5      ALA      O     48    -0.510000    15.9994   ; qtot  1.000
    49        NH1      6      VAL      N     49    -0.470000    14.0070   ; qtot  0.530
    50          H      6      VAL     HN     50     0.310000     1.0080   ; qtot  0.840
    51        CT1      6      VAL     CA     51     0.070000    12.0110   ; qtot  0.910
    52        HB1      6      VAL     HA     52     0.090000     1.0080   ; qtot  1.000
    53        CT1      6      VAL     CB     53    -0.090000    12.0110   ; qtot  0.910
    54        HA1      6      VAL     HB     54     0.090000     1.0080   ; qtot  1.000
    55        CT3      6      VAL    CG1     55    -0.270000    12.0110   ; qtot  0.730
    56        HA3      6      VAL   HG11     56     0.090000     1.0080   ; qtot  0.820
    57        HA3      6      VAL   HG12     57     0.090000     1.0080   ; qtot  0.910
    58        HA3      6      VAL   HG13     58     0.090000     1.0080   ; qtot  1.000
    59        CT3      6      VAL    CG2     59    -0.270000    12.0110   ; qtot  0.730
    60        HA3      6      VAL   HG21     60     0.090000     1.0080   ; qtot  0.820
    61        HA3      6      VAL   HG22     61     0.090000     1.0080   ; qtot  0.910
    62        HA3      6      VAL   HG23     62     0.090000     1.0080   ; qtot  1.000
    63          C      6      VAL      C     63     0.510000    12.0110   ; qtot  1.510
    64          O      6      VAL      O     64    -0.510000    15.9994   ; qtot  1.000
    65        NH1      7      VAL      N     65    -0.470000    14.0070   ; qtot  0.530
    66          H      7      VAL     HN     66     0.310000     1.0080   ; qtot  0.840
    67        CT1      7      VAL     CA     67     0.070000    12.0110   ; qtot  0.910
    68        HB1      7      VAL     HA     68     0.090000     1.0080   ; qtot  1.000
    69        CT1      7      VAL     CB     69    -0.090000    12.0110   ; qtot  0.910
    70        HA1      7      VAL     HB     70     0.090000     1.0080   ; qtot  1.000
    71        CT3      7      VAL    CG1     71    -0.270000    12.0110   ; qtot  0.730
    72        HA3      7      VAL   HG11     72     0.090000     1.0080   ; qtot  0.820
    73        HA3      7      VAL   HG12     73     0.090000     1.0080   ; qtot  0.910
    74        HA3      7      VAL   HG13     74     0.090000     1.0080   ; qtot  1.000
    75        CT3      7      VAL    CG2     75    -0.270000    12.0110   ; qtot  0.730
    76        HA3      7      VAL   HG21     76     0.090000     1.0080   ; qtot  0.820
    77        HA3      7      VAL   HG22     77     0.090000     1.0080   ; qtot  0.910
    78        HA3      7      VAL   HG23     78     0.090000     1.0080   ; qtot  1.000
    79          C      7      VAL      C     79     0.510000    12.0110   ; qtot  1.510
    80          O      7      VAL      O     80    -0.510000    15.9994   ; qtot  1.000
    81        NH1      8      VAL      N     81    -0.470000    14.0070   ; qtot  0.530
    82          H      8      VAL     HN     82     0.310000     1.0080   ; qtot  0.840
    83        CT1      8      VAL     CA     83     0.070000    12.0110   ; qtot  0.910
    84        HB1      8      VAL     HA     84     0.090000     1.0080   ; qtot  1.000
    85        CT1      8      VAL     CB     85    -0.090000    12.0110   ; qtot  0.910
    86        HA1      8      VAL     HB     86     0.090000     1.0080   ; qtot  1.000
    87        CT3      8      VAL    CG1     87    -0.270000    12.0110   ; qtot  0.730
    88        HA3      8      VAL   HG11     88     0.090000     1.0080   ; qtot  0.820
    89        HA3      8      VAL   HG12     89     0.090000     1.0080   ; qtot  0.910
    90        HA3      8      VAL   HG13     90     0.090000     1.0080   ; qtot  1.000
    91        CT3      8      VAL    CG2     91    -0.270000    12.0110   ; qtot  0.730
    92        HA3      8      VAL   HG21     92     0.090000     1.0080   ; qtot  0.820
    93        HA3      8      VAL   HG22     93     0.090000     1.0080   ; qtot  0.910
    94        HA3      8      VAL   HG23     94     0.090000     1.0080   ; qtot  1.000
    95          C      8      VAL      C     95     0.510000    12.0110   ; qtot  1.510
    96          O      8      VAL      O     96    -0.510000    15.9994   ; qtot  1.000
    97        NH1      9      TRP      N     97    -0.470000    14.0070   ; qtot  0.530
    98          H      9      TRP     HN     98     0.310000     1.0080   ; qtot  0.840
    99        CT1      9      TRP     CA     99     0.070000    12.0110   ; qtot  0.910
   100        HB1      9      TRP     HA    100     0.090000     1.0080   ; qtot  1.000
   101        CT2      9      TRP     CB    101    -0.180000    12.0110   ; qtot  0.820
   102        HA2      9      TRP    HB1    102     0.090000     1.0080   ; qtot  0.910
   103        HA2      9      TRP    HB2    103     0.090000     1.0080   ; qtot  1.000
   104         CY      9      TRP     CG    104    -0.030000    12.0110   ; qtot  0.970
   105         CA      9      TRP    CD1    105    -0.150000    12.0110   ; qtot  0.820
   106         HP      9      TRP    HD1    106     0.220000     1.0080   ; qtot  1.040
   107         NY      9      TRP    NE1    107    -0.510000    14.0070   ; qtot  0.530
   108          H      9      TRP    HE1    108     0.370000     1.0080   ; qtot  0.900
   109        CPT      9      TRP    CE2    109     0.240000    12.0110   ; qtot  1.140
   110        CPT      9      TRP    CD2    110     0.110000    12.0110   ; qtot  1.250
   111        CAI      9      TRP    CE3    111    -0.250000    12.0110   ; qtot  1.000
   112         HP      9      TRP    HE3    112     0.170000     1.0080   ; qtot  1.170
   113         CA      9      TRP    CZ3    113    -0.200000    12.0110   ; qtot  0.970
   114         HP      9      TRP    HZ3    114     0.140000     1.0080   ; qtot  1.110
   115        CAI      9      TRP    CZ2    115    -0.270000    12.0110   ; qtot  0.840
   116         HP      9      TRP    HZ2    116     0.160000     1.0080   ; qtot  1.000
   117         CA      9      TRP    CH2    117    -0.140000    12.0110   ; qtot  0.860
   118         HP      9      TRP    HH2    118     0.140000     1.0080   ; qtot  1.000
   119          C      9      TRP      C    119     0.510000    12.0110   ; qtot  1.510
   120          O      9      TRP      O    120    -0.510000    15.9994   ; qtot  1.000
   121        NH1     10      LEU      N    121    -0.470000    14.0070   ; qtot  0.530
   122          H     10      LEU     HN    122     0.310000     1.0080   ; qtot  0.840
   123        CT1     10      LEU     CA    123     0.070000    12.0110   ; qtot  0.910
   124        HB1     10      LEU     HA    124     0.090000     1.0080   ; qtot  1.000
   125        CT2     10      LEU     CB    125    -0.180000    12.0110   ; qtot  0.820
   126        HA2     10      LEU    HB1    126     0.090000     1.0080   ; qtot  0.910
   127        HA2     10      LEU    HB2    127     0.090000     1.0080   ; qtot  1.000
   128        CT1     10      LEU     CG    128    -0.090000    12.0110   ; qtot  0.910
   129        HA1     10      LEU     HG    129     0.090000     1.0080   ; qtot  1.000
   130        CT3     10      LEU    CD1    130    -0.270000    12.0110   ; qtot  0.730
   131        HA3     10      LEU   HD11    131     0.090000     1.0080   ; qtot  0.820
   132        HA3     10      LEU   HD12    132     0.090000     1.0080   ; qtot  0.910
   133        HA3     10      LEU   HD13    133     0.090000     1.0080   ; qtot  1.000
   134        CT3     10      LEU    CD2    134    -0.270000    12.0110   ; qtot  0.730
   135        HA3     10      LEU   HD21    135     0.090000     1.0080   ; qtot  0.820
   136        HA3     10      LEU   HD22    136     0.090000     1.0080   ; qtot  0.910
   137        HA3     10      LEU   HD23    137     0.090000     1.0080   ; qtot  1.000
   138          C     10      LEU      C    138     0.510000    12.0110   ; qtot  1.510
   139          O     10      LEU      O    139    -0.510000    15.9994   ; qtot  1.000
   140        NH1     11      TRP      N    140    -0.470000    14.0070   ; qtot  0.530
   141          H     11      TRP     HN    141     0.310000     1.0080   ; qtot  0.840
   142        CT1     11      TRP     CA    142     0.070000    12.0110   ; qtot  0.910
   143        HB1     11      TRP     HA    143     0.090000     1.0080   ; qtot  1.000
   144        CT2     11      TRP     CB    144    -0.180000    12.0110   ; qtot  0.820
   145        HA2     11      TRP    HB1    145     0.090000     1.0080   ; qtot  0.910
   146        HA2     11      TRP    HB2    146     0.090000     1.0080   ; qtot  1.000
   147         CY     11      TRP     CG    147    -0.030000    12.0110   ; qtot  0.970
   148         CA     11      TRP    CD1    148    -0.150000    12.0110   ; qtot  0.820
   149         HP     11      TRP    HD1    149     0.220000     1.0080   ; qtot  1.040
   150         NY     11      TRP    NE1    150    -0.510000    14.0070   ; qtot  0.530
   151          H     11      TRP    HE1    151     0.370000     1.0080   ; qtot  0.900
   152        CPT     11      TRP    CE2    152     0.240000    12.0110   ; qtot  1.140
   153        CPT     11      TRP    CD2    153     0.110000    12.0110   ; qtot  1.250
   154        CAI     11      TRP    CE3    154    -0.250000    12.0110   ; qtot  1.000
   155         HP     11      TRP    HE3    155     0.170000     1.0080   ; qtot  1.170
   156         CA     11      TRP    CZ3    156    -0.200000    12.0110   ; qtot  0.970
   157         HP     11      TRP    HZ3    157     0.140000     1.0080   ; qtot  1.110
   158        CAI     11      TRP    CZ2    158    -0.270000    12.0110   ; qtot  0.840
   159         HP     11      TRP    HZ2    159     0.160000     1.0080   ; qtot  1.000
   160         CA     11      TRP    CH2    160    -0.140000    12.0110   ; qtot  0.860
   161         HP     11      TRP    HH2    161     0.140000     1.0080   ; qtot  1.000
   162          C     11      TRP      C    162     0.510000    12.0110   ; qtot  1.510
   163          O     11      TRP      O    163    -0.510000    15.9994   ; qtot  1.000
   164        NH1     12      LEU      N    164    -0.470000    14.0070   ; qtot  0.530
   165          H     12      LEU     HN    165     0.310000     1.0080   ; qtot  0.840
   166        CT1     12      LEU     CA    166     0.070000    12.0110   ; qtot  0.910
   167        HB1     12      LEU     HA    167     0.090000     1.0080   ; qtot  1.000
   168        CT2     12      LEU     CB    168    -0.180000    12.0110   ; qtot  0.820
   169        HA2     12      LEU    HB1    169     0.090000     1.0080   ; qtot  0.910
   170        HA2     12      LEU    HB2    170     0.090000     1.0080   ; qtot  1.000
   171        CT1     12      LEU     CG    171    -0.090000    12.0110   ; qtot  0.910
   172        HA1     12      LEU     HG    172     0.090000     1.0080   ; qtot  1.000
   173        CT3     12      LEU    CD1    173    -0.270000    12.0110   ; qtot  0.730
   174        HA3     12      LEU   HD11    174     0.090000     1.0080   ; qtot  0.820
   175        HA3     12      LEU   HD12    175     0.090000     1.0080   ; qtot  0.910
   176        HA3     12      LEU   HD13    176     0.090000     1.0080   ; qtot  1.000
   177        CT3     12      LEU    CD2    177    -0.270000    12.0110   ; qtot  0.730
   178        HA3     12      LEU   HD21    178     0.090000     1.0080   ; qtot  0.820
   179        HA3     12      LEU   HD22    179     0.090000     1.0080   ; qtot  0.910
   180        HA3     12      LEU   HD23    180     0.090000     1.0080   ; qtot  1.000
   181          C     12      LEU      C    181     0.510000    12.0110   ; qtot  1.510
   182          O     12      LEU      O    182    -0.510000    15.9994   ; qtot  1.000
   183        NH1     13      TRP      N    183    -0.470000    14.0070   ; qtot  0.530
   184          H     13      TRP     HN    184     0.310000     1.0080   ; qtot  0.840
   185        CT1     13      TRP     CA    185     0.070000    12.0110   ; qtot  0.910
   186        HB1     13      TRP     HA    186     0.090000     1.0080   ; qtot  1.000
   187        CT2     13      TRP     CB    187    -0.180000    12.0110   ; qtot  0.820
   188        HA2     13      TRP    HB1    188     0.090000     1.0080   ; qtot  0.910
   189        HA2     13      TRP    HB2    189     0.090000     1.0080   ; qtot  1.000
   190         CY     13      TRP     CG    190    -0.030000    12.0110   ; qtot  0.970
   191         CA     13      TRP    CD1    191    -0.150000    12.0110   ; qtot  0.820
   192         HP     13      TRP    HD1    192     0.220000     1.0080   ; qtot  1.040
   193         NY     13      TRP    NE1    193    -0.510000    14.0070   ; qtot  0.530
   194          H     13      TRP    HE1    194     0.370000     1.0080   ; qtot  0.900
   195        CPT     13      TRP    CE2    195     0.240000    12.0110   ; qtot  1.140
   196        CPT     13      TRP    CD2    196     0.110000    12.0110   ; qtot  1.250
   197        CAI     13      TRP    CE3    197    -0.250000    12.0110   ; qtot  1.000
   198         HP     13      TRP    HE3    198     0.170000     1.0080   ; qtot  1.170
   199         CA     13      TRP    CZ3    199    -0.200000    12.0110   ; qtot  0.970
   200         HP     13      TRP    HZ3    200     0.140000     1.0080   ; qtot  1.110
   201        CAI     13      TRP    CZ2    201    -0.270000    12.0110   ; qtot  0.840
   202         HP     13      TRP    HZ2    202     0.160000     1.0080   ; qtot  1.000
   203         CA     13      TRP    CH2    203    -0.140000    12.0110   ; qtot  0.860
   204         HP     13      TRP    HH2    204     0.140000     1.0080   ; qtot  1.000
   205          C     13      TRP      C    205     0.510000    12.0110   ; qtot  1.510
   206          O     13      TRP      O    206    -0.510000    15.9994   ; qtot  1.000
   207        NH1     14      LEU      N    207    -0.470000    14.0070   ; qtot  0.530
   208          H     14      LEU     HN    208     0.310000     1.0080   ; qtot  0.840
   209        CT1     14      LEU     CA    209     0.070000    12.0110   ; qtot  0.910
   210        HB1     14      LEU     HA    210     0.090000     1.0080   ; qtot  1.000
   211        CT2     14      LEU     CB    211    -0.180000    12.0110   ; qtot  0.820
   212        HA2     14      LEU    HB1    212     0.090000     1.0080   ; qtot  0.910
   213        HA2     14      LEU    HB2    213     0.090000     1.0080   ; qtot  1.000
   214        CT1     14      LEU     CG    214    -0.090000    12.0110   ; qtot  0.910
   215        HA1     14      LEU     HG    215     0.090000     1.0080   ; qtot  1.000
   216        CT3     14      LEU    CD1    216    -0.270000    12.0110   ; qtot  0.730
   217        HA3     14      LEU   HD11    217     0.090000     1.0080   ; qtot  0.820
   218        HA3     14      LEU   HD12    218     0.090000     1.0080   ; qtot  0.910
   219        HA3     14      LEU   HD13    219     0.090000     1.0080   ; qtot  1.000
   220        CT3     14      LEU    CD2    220    -0.270000    12.0110   ; qtot  0.730
   221        HA3     14      LEU   HD21    221     0.090000     1.0080   ; qtot  0.820
   222        HA3     14      LEU   HD22    222     0.090000     1.0080   ; qtot  0.910
   223        HA3     14      LEU   HD23    223     0.090000     1.0080   ; qtot  1.000
   224          C     14      LEU      C    224     0.510000    12.0110   ; qtot  1.510
   225          O     14      LEU      O    225    -0.510000    15.9994   ; qtot  1.000
   226        NH1     15      TRP      N    226    -0.470000    14.0070   ; qtot  0.530
   227          H     15      TRP     HN    227     0.310000     1.0080   ; qtot  0.840
   228        CT1     15      TRP     CA    228     0.070000    12.0110   ; qtot  0.910
   229        HB1     15      TRP     HA    229     0.090000     1.0080   ; qtot  1.000
   230        CT2     15      TRP     CB    230    -0.180000    12.0110   ; qtot  0.820
   231        HA2     15      TRP    HB1    231     0.090000     1.0080   ; qtot  0.910
   232        HA2     15      TRP    HB2    232     0.090000     1.0080   ; qtot  1.000
   233         CY     15      TRP     CG    233    -0.030000    12.0110   ; qtot  0.970
   234         CA     15      TRP    CD1    234    -0.150000    12.0110   ; qtot  0.820
   235         HP     15      TRP    HD1    235     0.220000     1.0080   ; qtot  1.040
   236         NY     15      TRP    NE1    236    -0.510000    14.0070   ; qtot  0.530
   237          H     15      TRP    HE1    237     0.370000     1.0080   ; qtot  0.900
   238        CPT     15      TRP    CE2    238     0.240000    12.0110   ; qtot  1.140
   239        CPT     15      TRP    CD2    239     0.110000    12.0110   ; qtot  1.250
   240        CAI     15      TRP    CE3    240    -0.250000    12.0110   ; qtot  1.000
   241         HP     15      TRP    HE3    241     0.170000     1.0080   ; qtot  1.170
   242         CA     15      TRP    CZ3    242    -0.200000    12.0110   ; qtot  0.970
   243         HP     15      TRP    HZ3    243     0.140000     1.0080   ; qtot  1.110
   244        CAI     15      TRP    CZ2    244    -0.270000    12.0110   ; qtot  0.840
   245         HP     15      TRP    HZ2    245     0.160000     1.0080   ; qtot  1.000
   246         CA     15      TRP    CH2    246    -0.140000    12.0110   ; qtot  0.860
   247         HP     15      TRP    HH2    247     0.140000     1.0080   ; qtot  1.000
   248         CC     15      TRP      C    248     0.340000    12.0110   ; qtot  1.340
   249         OC     15      TRP    OT1    249    -0.670000    15.9994   ; qtot  0.670
   250         OC     15      TRP    OT2    250    -0.670000    15.9994   ; qtot  0.000

[ bonds ]
; ai	aj	funct	b0	Kb
    2     1     1
    3     1     1
    4     1     1
    1     5     1
    5     6     1
    5     7     1
    8     5     1
    9     8     1
    8    10     1
   10    11     1
   10    12     1
   12    13     1
   14    12     1
   18    12     1
   14    15     1
   14    16     1
   14    17     1
   19    18     1
   18    20     1
   20    21     1
   20    22     1
   22    23     1
   24    22     1
   37    22     1
   24    25     1
   24    26     1
   27    24     1
   27    28     1
   29    27     1
   33    27     1
   29    30     1
   29    31     1
   29    32     1
   33    34     1
   33    35     1
   33    36     1
   38    37     1
   37    39     1
   39    40     1
   39    41     1
   41    42     1
   43    41     1
   47    41     1
   43    44     1
   43    45     1
   43    46     1
   48    47     1
   47    49     1
   49    50     1
   49    51     1
   51    52     1
   53    51     1
   63    51     1
   53    54     1
   55    53     1
   59    53     1
   55    56     1
   55    57     1
   55    58     1
   59    60     1
   59    61     1
   59    62     1
   64    63     1
   63    65     1
   65    66     1
   65    67     1
   67    68     1
   69    67     1
   79    67     1
   69    70     1
   71    69     1
   75    69     1
   71    72     1
   71    73     1
   71    74     1
   75    76     1
   75    77     1
   75    78     1
   80    79     1
   79    81     1
   81    82     1
   81    83     1
   83    84     1
   85    83     1
   95    83     1
   85    86     1
   87    85     1
   91    85     1
   87    88     1
   87    89     1
   87    90     1
   91    92     1
   91    93     1
   91    94     1
   96    95     1
   95    97     1
   97    98     1
   97    99     1
   99   100     1
  101    99     1
  119    99     1
  101   102     1
  101   103     1
  104   101     1
  105   104     1
  110   104     1
  105   106     1
  107   105     1
  107   108     1
  107   109     1
  109   110     1
  115   109     1
  110   111     1
  111   112     1
  113   111     1
  113   114     1
  113   117     1
  115   116     1
  117   115     1
  117   118     1
  120   119     1
  119   121     1
  121   122     1
  121   123     1
  123   124     1
  125   123     1
  138   123     1
  125   126     1
  125   127     1
  128   125     1
  128   129     1
  130   128     1
  134   128     1
  130   131     1
  130   132     1
  130   133     1
  134   135     1
  134   136     1
  134   137     1
  139   138     1
  138   140     1
  140   141     1
  140   142     1
  142   143     1
  144   142     1
  162   142     1
  144   145     1
  144   146     1
  147   144     1
  148   147     1
  153   147     1
  148   149     1
  150   148     1
  150   151     1
  150   152     1
  152   153     1
  158   152     1
  153   154     1
  154   155     1
  156   154     1
  156   157     1
  156   160     1
  158   159     1
  160   158     1
  160   161     1
  163   162     1
  162   164     1
  164   165     1
  164   166     1
  166   167     1
  168   166     1
  181   166     1
  168   169     1
  168   170     1
  171   168     1
  171   172     1
  173   171     1
  177   171     1
  173   174     1
  173   175     1
  173   176     1
  177   178     1
  177   179     1
  177   180     1
  182   181     1
  181   183     1
  183   184     1
  183   185     1
  185   186     1
  187   185     1
  205   185     1
  187   188     1
  187   189     1
  190   187     1
  191   190     1
  196   190     1
  191   192     1
  193   191     1
  193   194     1
  193   195     1
  195   196     1
  201   195     1
  196   197     1
  197   198     1
  199   197     1
  199   200     1
  199   203     1
  201   202     1
  203   201     1
  203   204     1
  206   205     1
  205   207     1
  207   208     1
  207   209     1
  209   210     1
  211   209     1
  224   209     1
  211   212     1
  211   213     1
  214   211     1
  214   215     1
  216   214     1
  220   214     1
  216   217     1
  216   218     1
  216   219     1
  220   221     1
  220   222     1
  220   223     1
  225   224     1
  224   226     1
  226   227     1
  226   228     1
  228   229     1
  230   228     1
  248   228     1
  230   231     1
  230   232     1
  233   230     1
  234   233     1
  239   233     1
  234   235     1
  236   234     1
  236   237     1
  236   238     1
  238   239     1
  244   238     1
  239   240     1
  240   241     1
  242   240     1
  242   243     1
  242   246     1
  244   245     1
  246   244     1
  246   247     1
  248   249     1
  248   250     1

[ pairs ]
; ai	aj	funct	c6	c12 or
; ai	aj	funct	fudgeQQ	q1	q2	c6	c12
    1     9     1
    1    10     1
    2     6     1
    2     7     1
    2     8     1
    3     6     1
    3     7     1
    3     8     1
    4     6     1
    4     7     1
    4     8     1
    5    11     1
    5    12     1
    6     9     1
    6    10     1
    7     9     1
    7    10     1
    8    13     1
    8    14     1
    8    18     1
    9    11     1
    9    12     1
   10    15     1
   10    16     1
   10    17     1
   10    19     1
   10    20     1
   11    13     1
   11    14     1
   11    18     1
   12    21     1
   12    22     1
   13    15     1
   13    16     1
   13    17     1
   13    19     1
   13    20     1
   14    19     1
   14    20     1
   15    18     1
   16    18     1
   17    18     1
   18    23     1
   18    24     1
   18    37     1
   19    21     1
   19    22     1
   20    25     1
   20    26     1
   20    27     1
   20    38     1
   20    39     1
   21    23     1
   21    24     1
   21    37     1
   22    28     1
   22    29     1
   22    33     1
   22    40     1
   22    41     1
   23    25     1
   23    26     1
   23    27     1
   23    38     1
   23    39     1
   24    30     1
   24    31     1
   24    32     1
   24    34     1
   24    35     1
   24    36     1
   24    38     1
   24    39     1
   25    28     1
   25    29     1
   25    33     1
   25    37     1
   26    28     1
   26    29     1
   26    33     1
   26    37     1
   27    37     1
   28    30     1
   28    31     1
   28    32     1
   28    34     1
   28    35     1
   28    36     1
   29    34     1
   29    35     1
   29    36     1
   30    33     1
   31    33     1
   32    33     1
   37    42     1
   37    43     1
   37    47     1
   38    40     1
   38    41     1
   39    44     1
   39    45     1
   39    46     1
   39    48     1
   39    49     1
   40    42     1
   40    43     1
   40    47     1
   41    50     1
   41    51     1
   42    44     1
   42    45     1
   42    46     1
   42    48     1
   42    49     1
   43    48     1
   43    49     1
   44    47     1
   45    47     1
   46    47     1
   47    52     1
   47    53     1
   47    63     1
   48    50     1
   48    51     1
   49    54     1
   49    55     1
   49    59     1
   49    64     1
   49    65     1
   50    52     1
   50    53     1
   50    63     1
   51    56     1
   51    57     1
   51    58     1
   51    60     1
   51    61     1
   51    62     1
   51    66     1
   51    67     1
   52    54     1
   52    55     1
   52    59     1
   52    64     1
   52    65     1
   53    64     1
   53    65     1
   54    56     1
   54    57     1
   54    58     1
   54    60     1
   54    61     1
   54    62     1
   54    63     1
   55    60     1
   55    61     1
   55    62     1
   55    63     1
   56    59     1
   57    59     1
   58    59     1
   59    63     1
   63    68     1
   63    69     1
   63    79     1
   64    66     1
   64    67     1
   65    70     1
   65    71     1
   65    75     1
   65    80     1
   65    81     1
   66    68     1
   66    69     1
   66    79     1
   67    72     1
   67    73     1
   67    74     1
   67    76     1
   67    77     1
   67    78     1
   67    82     1
   67    83     1
   68    70     1
   68    71     1
   68    75     1
   68    80     1
   68    81     1
   69    80     1
   69    81     1
   70    72     1
   70    73     1
   70    74     1
   70    76     1
   70    77     1
   70    78     1
   70    79     1
   71    76     1
   71    77     1
   71    78     1
   71    79     1
   72    75     1
   73    75     1
   74    75     1
   75    79     1
   79    84     1
   79    85     1
   79    95     1
   80    82     1
   80    83     1
   81    86     1
   81    87     1
   81    91     1
   81    96     1
   81    97     1
   82    84     1
   82    85     1
   82    95     1
   83    88     1
   83    89     1
   83    90     1
   83    92     1
   83    93     1
   83    94     1
   83    98     1
   83    99     1
   84    86     1
   84    87     1
   84    91     1
   84    96     1
   84    97     1
   85    96     1
   85    97     1
   86    88     1
   86    89     1
   86    90     1
   86    92     1
   86    93     1
   86    94     1
   86    95     1
   87    92     1
   87    93     1
   87    94     1
   87    95     1
   88    91     1
   89    91     1
   90    91     1
   91    95     1
   95   100     1
   95   101     1
   95   119     1
   96    98     1
   96    99     1
   97   102     1
   97   103     1
   97   104     1
   97   120     1
   97   121     1
   98   100     1
   98   101     1
   98   119     1
   99   105     1
   99   110     1
   99   122     1
   99   123     1
  100   102     1
  100   103     1
  100   104     1
  100   120     1
  100   121     1
  101   106     1
  101   107     1
  101   109     1
  101   111     1
  101   120     1
  101   121     1
  102   105     1
  102   110     1
  102   119     1
  103   105     1
  103   110     1
  103   119     1
  104   108     1
  104   112     1
  104   113     1
  104   115     1
  104   119     1
  105   111     1
  105   115     1
  106   108     1
  106   109     1
  106   110     1
  107   111     1
  107   116     1
  107   117     1
  108   110     1
  108   115     1
  109   112     1
  109   113     1
  109   118     1
  110   114     1
  110   116     1
  110   117     1
  111   115     1
  111   118     1
  112   114     1
  112   117     1
  113   116     1
  114   115     1
  114   118     1
  116   118     1
  119   124     1
  119   125     1
  119   138     1
  120   122     1
  120   123     1
  121   126     1
  121   127     1
  121   128     1
  121   139     1
  121   140     1
  122   124     1
  122   125     1
  122   138     1
  123   129     1
  123   130     1
  123   134     1
  123   141     1
  123   142     1
  124   126     1
  124   127     1
  124   128     1
  124   139     1
  124   140     1
  125   131     1
  125   132     1
  125   133     1
  125   135     1
  125   136     1
  125   137     1
  125   139     1
  125   140     1
  126   129     1
  126   130     1
  126   134     1
  126   138     1
  127   129     1
  127   130     1
  127   134     1
  127   138     1
  128   138     1
  129   131     1
  129   132     1
  129   133     1
  129   135     1
  129   136     1
  129   137     1
  130   135     1
  130   136     1
  130   137     1
  131   134     1
  132   134     1
  133   134     1
  138   143     1
  138   144     1
  138   162     1
  139   141     1
  139   142     1
  140   145     1
  140   146     1
  140   147     1
  140   163     1
  140   164     1
  141   143     1
  141   144     1
  141   162     1
  142   148     1
  142   153     1
  142   165     1
  142   166     1
  143   145     1
  143   146     1
  143   147     1
  143   163     1
  143   164     1
  144   149     1
  144   150     1
  144   152     1
  144   154     1
  144   163     1
  144   164     1
  145   148     1
  145   153     1
  145   162     1
  146   148     1
  146   153     1
  146   162     1
  147   151     1
  147   155     1
  147   156     1
  147   158     1
  147   162     1
  148   154     1
  148   158     1
  149   151     1
  149   152     1
  149   153     1
  150   154     1
  150   159     1
  150   160     1
  151   153     1
  151   158     1
  152   155     1
  152   156     1
  152   161     1
  153   157     1
  153   159     1
  153   160     1
  154   158     1
  154   161     1
  155   157     1
  155   160     1
  156   159     1
  157   158     1
  157   161     1
  159   161     1
  162   167     1
  162   168     1
  162   181     1
  163   165     1
  163   166     1
  164   169     1
  164   170     1
  164   171     1
  164   182     1
  164   183     1
  165   167     1
  165   168     1
  165   181     1
  166   172     1
  166   173     1
  166   177     1
  166   184     1
  166   185     1
  167   169     1
  167   170     1
  167   171     1
  167   182     1
  167   183     1
  168   174     1
  168   175     1
  168   176     1
  168   178     1
  168   179     1
  168   180     1
  168   182     1
  168   183     1
  169   172     1
  169   173     1
  169   177     1
  169   181     1
  170   172     1
  170   173     1
  170   177     1
  170   181     1
  171   181     1
  172   174     1
  172   175     1
  172   176     1
  172   178     1
  172   179     1
  172   180     1
  173   178     1
  173   179     1
  173   180     1
  174   177     1
  175   177     1
  176   177     1
  181   186     1
  181   187     1
  181   205     1
  182   184     1
  182   185     1
  183   188     1
  183   189     1
  183   190     1
  183   206     1
  183   207     1
  184   186     1
  184   187     1
  184   205     1
  185   191     1
  185   196     1
  185   208     1
  185   209     1
  186   188     1
  186   189     1
  186   190     1
  186   206     1
  186   207     1
  187   192     1
  187   193     1
  187   195     1
  187   197     1
  187   206     1
  187   207     1
  188   191     1
  188   196     1
  188   205     1
  189   191     1
  189   196     1
  189   205     1
  190   194     1
  190   198     1
  190   199     1
  190   201     1
  190   205     1
  191   197     1
  191   201     1
  192   194     1
  192   195     1
  192   196     1
  193   197     1
  193   202     1
  193   203     1
  194   196     1
  194   201     1
  195   198     1
  195   199     1
  195   204     1
  196   200     1
  196   202     1
  196   203     1
  197   201     1
  197   204     1
  198   200     1
  198   203     1
  199   202     1
  200   201     1
  200   204     1
  202   204     1
  205   210     1
  205   211     1
  205   224     1
  206   208     1
  206   209     1
  207   212     1
  207   213     1
  207   214     1
  207   225     1
  207   226     1
  208   210     1
  208   211     1
  208   224     1
  209   215     1
  209   216     1
  209   220     1
  209   227     1
  209   228     1
  210   212     1
  210   213     1
  210   214     1
  210   225     1
  210   226     1
  211   217     1
  211   218     1
  211   219     1
  211   221     1
  211   222     1
  211   223     1
  211   225     1
  211   226     1
  212   215     1
  212   216     1
  212   220     1
  212   224     1
  213   215     1
  213   216     1
  213   220     1
  213   224     1
  214   224     1
  215   217     1
  215   218     1
  215   219     1
  215   221     1
  215   222     1
  215   223     1
  216   221     1
  216   222     1
  216   223     1
  217   220     1
  218   220     1
  219   220     1
  224   229     1
  224   230     1
  224   248     1
  225   227     1
  225   228     1
  226   231     1
  226   232     1
  226   233     1
  226   249     1
  226   250     1
  227   229     1
  227   230     1
  227   248     1
  228   234     1
  228   239     1
  229   231     1
  229   232     1
  229   233     1
  229   249     1
  229   250     1
  230   235     1
  230   236     1
  230   238     1
  230   240     1
  230   249     1
  230   250     1
  231   234     1
  231   239     1
  231   248     1
  232   234     1
  232   239     1
  232   248     1
  233   237     1
  233   241     1
  233   242     1
  233   244     1
  233   248     1
  234   240     1
  234   244     1
  235   237     1
  235   238     1
  235   239     1
  236   240     1
  236   245     1
  236   246     1
  237   239     1
  237   244     1
  238   241     1
  238   242     1
  238   247     1
  239   243     1
  239   245     1
  239   246     1
  240   244     1
  240   247     1
  241   243     1
  241   246     1
  242   245     1
  243   244     1
  243   247     1
  245   247     1

[ angles ] 
; ai	aj	ak	funct	th0	cth	S0	Kub
    2     1     3     5
    2     1     4     5
    2     1     5     5
    3     1     4     5
    3     1     5     5
    4     1     5     5
    1     5     6     5
    1     5     7     5
    1     5     8     5
    6     5     7     5
    6     5     8     5
    7     5     8     5
    5     8     9     5
    5     8    10     5
    9     8    10     5
    8    10    11     5
    8    10    12     5
   11    10    12     5
   10    12    13     5
   10    12    14     5
   10    12    18     5
   13    12    14     5
   13    12    18     5
   14    12    18     5
   12    14    15     5
   12    14    16     5
   12    14    17     5
   15    14    16     5
   15    14    17     5
   16    14    17     5
   12    18    19     5
   12    18    20     5
   19    18    20     5
   18    20    21     5
   18    20    22     5
   21    20    22     5
   20    22    23     5
   20    22    24     5
   20    22    37     5
   23    22    24     5
   23    22    37     5
   24    22    37     5
   22    24    25     5
   22    24    26     5
   22    24    27     5
   25    24    26     5
   25    24    27     5
   26    24    27     5
   24    27    28     5
   24    27    29     5
   24    27    33     5
   28    27    29     5
   28    27    33     5
   29    27    33     5
   27    29    30     5
   27    29    31     5
   27    29    32     5
   30    29    31     5
   30    29    32     5
   31    29    32     5
   27    33    34     5
   27    33    35     5
   27    33    36     5
   34    33    35     5
   34    33    36     5
   35    33    36     5
   22    37    38     5
   22    37    39     5
   38    37    39     5
   37    39    40     5
   37    39    41     5
   40    39    41     5
   39    41    42     5
   39    41    43     5
   39    41    47     5
   42    41    43     5
   42    41    47     5
   43    41    47     5
   41    43    44     5
   41    43    45     5
   41    43    46     5
   44    43    45     5
   44    43    46     5
   45    43    46     5
   41    47    48     5
   41    47    49     5
   48    47    49     5
   47    49    50     5
   47    49    51     5
   50    49    51     5
   49    51    52     5
   49    51    53     5
   49    51    63     5
   52    51    53     5
   52    51    63     5
   53    51    63     5
   51    53    54     5
   51    53    55     5
   51    53    59     5
   54    53    55     5
   54    53    59     5
   55    53    59     5
   53    55    56     5
   53    55    57     5
   53    55    58     5
   56    55    57     5
   56    55    58     5
   57    55    58     5
   53    59    60     5
   53    59    61     5
   53    59    62     5
   60    59    61     5
   60    59    62     5
   61    59    62     5
   51    63    64     5
   51    63    65     5
   64    63    65     5
   63    65    66     5
   63    65    67     5
   66    65    67     5
   65    67    68     5
   65    67    69     5
   65    67    79     5
   68    67    69     5
   68    67    79     5
   69    67    79     5
   67    69    70     5
   67    69    71     5
   67    69    75     5
   70    69    71     5
   70    69    75     5
   71    69    75     5
   69    71    72     5
   69    71    73     5
   69    71    74     5
   72    71    73     5
   72    71    74     5
   73    71    74     5
   69    75    76     5
   69    75    77     5
   69    75    78     5
   76    75    77     5
   76    75    78     5
   77    75    78     5
   67    79    80     5
   67    79    81     5
   80    79    81     5
   79    81    82     5
   79    81    83     5
   82    81    83     5
   81    83    84     5
   81    83    85     5
   81    83    95     5
   84    83    85     5
   84    83    95     5
   85    83    95     5
   83    85    86     5
   83    85    87     5
   83    85    91     5
   86    85    87     5
   86    85    91     5
   87    85    91     5
   85    87    88     5
   85    87    89     5
   85    87    90     5
   88    87    89     5
   88    87    90     5
   89    87    90     5
   85    91    92     5
   85    91    93     5
   85    91    94     5
   92    91    93     5
   92    91    94     5
   93    91    94     5
   83    95    96     5
   83    95    97     5
   96    95    97     5
   95    97    98     5
   95    97    99     5
   98    97    99     5
   97    99   100     5
   97    99   101     5
   97    99   119     5
  100    99   101     5
  100    99   119     5
  101    99   119     5
   99   101   102     5
   99   101   103     5
   99   101   104     5
  102   101   103     5
  102   101   104     5
  103   101   104     5
  101   104   105     5
  101   104   110     5
  105   104   110     5
  104   105   106     5
  104   105   107     5
  106   105   107     5
  105   107   108     5
  105   107   109     5
  108   107   109     5
  107   109   110     5
  107   109   115     5
  110   109   115     5
  104   110   109     5
  104   110   111     5
  109   110   111     5
  110   111   112     5
  110   111   113     5
  112   111   113     5
  111   113   114     5
  111   113   117     5
  114   113   117     5
  109   115   116     5
  109   115   117     5
  116   115   117     5
  113   117   115     5
  113   117   118     5
  115   117   118     5
   99   119   120     5
   99   119   121     5
  120   119   121     5
  119   121   122     5
  119   121   123     5
  122   121   123     5
  121   123   124     5
  121   123   125     5
  121   123   138     5
  124   123   125     5
  124   123   138     5
  125   123   138     5
  123   125   126     5
  123   125   127     5
  123   125   128     5
  126   125   127     5
  126   125   128     5
  127   125   128     5
  125   128   129     5
  125   128   130     5
  125   128   134     5
  129   128   130     5
  129   128   134     5
  130   128   134     5
  128   130   131     5
  128   130   132     5
  128   130   133     5
  131   130   132     5
  131   130   133     5
  132   130   133     5
  128   134   135     5
  128   134   136     5
  128   134   137     5
  135   134   136     5
  135   134   137     5
  136   134   137     5
  123   138   139     5
  123   138   140     5
  139   138   140     5
  138   140   141     5
  138   140   142     5
  141   140   142     5
  140   142   143     5
  140   142   144     5
  140   142   162     5
  143   142   144     5
  143   142   162     5
  144   142   162     5
  142   144   145     5
  142   144   146     5
  142   144   147     5
  145   144   146     5
  145   144   147     5
  146   144   147     5
  144   147   148     5
  144   147   153     5
  148   147   153     5
  147   148   149     5
  147   148   150     5
  149   148   150     5
  148   150   151     5
  148   150   152     5
  151   150   152     5
  150   152   153     5
  150   152   158     5
  153   152   158     5
  147   153   152     5
  147   153   154     5
  152   153   154     5
  153   154   155     5
  153   154   156     5
  155   154   156     5
  154   156   157     5
  154   156   160     5
  157   156   160     5
  152   158   159     5
  152   158   160     5
  159   158   160     5
  156   160   158     5
  156   160   161     5
  158   160   161     5
  142   162   163     5
  142   162   164     5
  163   162   164     5
  162   164   165     5
  162   164   166     5
  165   164   166     5
  164   166   167     5
  164   166   168     5
  164   166   181     5
  167   166   168     5
  167   166   181     5
  168   166   181     5
  166   168   169     5
  166   168   170     5
  166   168   171     5
  169   168   170     5
  169   168   171     5
  170   168   171     5
  168   171   172     5
  168   171   173     5
  168   171   177     5
  172   171   173     5
  172   171   177     5
  173   171   177     5
  171   173   174     5
  171   173   175     5
  171   173   176     5
  174   173   175     5
  174   173   176     5
  175   173   176     5
  171   177   178     5
  171   177   179     5
  171   177   180     5
  178   177   179     5
  178   177   180     5
  179   177   180     5
  166   181   182     5
  166   181   183     5
  182   181   183     5
  181   183   184     5
  181   183   185     5
  184   183   185     5
  183   185   186     5
  183   185   187     5
  183   185   205     5
  186   185   187     5
  186   185   205     5
  187   185   205     5
  185   187   188     5
  185   187   189     5
  185   187   190     5
  188   187   189     5
  188   187   190     5
  189   187   190     5
  187   190   191     5
  187   190   196     5
  191   190   196     5
  190   191   192     5
  190   191   193     5
  192   191   193     5
  191   193   194     5
  191   193   195     5
  194   193   195     5
  193   195   196     5
  193   195   201     5
  196   195   201     5
  190   196   195     5
  190   196   197     5
  195   196   197     5
  196   197   198     5
  196   197   199     5
  198   197   199     5
  197   199   200     5
  197   199   203     5
  200   199   203     5
  195   201   202     5
  195   201   203     5
  202   201   203     5
  199   203   201     5
  199   203   204     5
  201   203   204     5
  185   205   206     5
  185   205   207     5
  206   205   207     5
  205   207   208     5
  205   207   209     5
  208   207   209     5
  207   209   210     5
  207   209   211     5
  207   209   224     5
  210   209   211     5
  210   209   224     5
  211   209   224     5
  209   211   212     5
  209   211   213     5
  209   211   214     5
  212   211   213     5
  212   211   214     5
  213   211   214     5
  211   214   215     5
  211   214   216     5
  211   214   220     5
  215   214   216     5
  215   214   220     5
  216   214   220     5
  214   216   217     5
  214   216   218     5
  214   216   219     5
  217   216   218     5
  217   216   219     5
  218   216   219     5
  214   220   221     5
  214   220   222     5
  214   220   223     5
  221   220   222     5
  221   220   223     5
  222   220   223     5
  209   224   225     5
  209   224   226     5
  225   224   226     5
  224   226   227     5
  224   226   228     5
  227   226   228     5
  226   228   229     5
  226   228   230     5
  226   228   248     5
  229   228   230     5
  229   228   248     5
  230   228   248     5
  228   230   231     5
  228   230   232     5
  228   230   233     5
  231   230   232     5
  231   230   233     5
  232   230   233     5
  230   233   234     5
  230   233   239     5
  234   233   239     5
  233   234   235     5
  233   234   236     5
  235   234   236     5
  234   236   237     5
  234   236   238     5
  237   236   238     5
  236   238   239     5
  236   238   244     5
  239   238   244     5
  233   239   238     5
  233   239   240     5
  238   239   240     5
  239   240   241     5
  239   240   242     5
  241   240   242     5
  240   242   243     5
  240   242   246     5
  243   242   246     5
  238   244   245     5
  238   244   246     5
  245   244   246     5
  242   246   244     5
  242   246   247     5
  244   246   247     5
  228   248   249     5
  228   248   250     5
  249   248   250     5

[ dihedrals ]
; ai	aj	ak	al	funct	phi0	cp	mult
    2     1     5     6     9
    2     1     5     7     9
    2     1     5     8     9
    3     1     5     6     9
    3     1     5     7     9
    3     1     5     8     9
    4     1     5     6     9
    4     1     5     7     9
    4     1     5     8     9
    1     5     8     9     9
    1     5     8    10     9
    6     5     8     9     9
    6     5     8    10     9
    7     5     8     9     9
    7     5     8    10     9
    5     8    10    11     9
    5     8    10    12     9
    9     8    10    11     9
    9     8    10    12     9
    8    10    12    13     9
    8    10    12    14     9
    8    10    12    18     9
   11    10    12    13     9
   11    10    12    14     9
   11    10    12    18     9
   10    12    14    15     9
   10    12    14    16     9
   10    12    14    17     9
   13    12    14    15     9
   13    12    14    16     9
   13    12    14    17     9
   10    12    18    19     9
   10    12    18    20     9
   13    12    18    19     9
   13    12    18    20     9
   14    12    18    19     9
   14    12    18    20     9
   15    14    12    18     9
   16    14    12    18     9
   17    14    12    18     9
   12    18    20    21     9
   12    18    20    22     9
   19    18    20    21     9
   19    18    20    22     9
   18    20    22    23     9
   18    20    22    24     9
   18    20    22    37     9
   21    20    22    23     9
   21    20    22    24     9
   21    20    22    37     9
   20    22    24    25     9
   20    22    24    26     9
   20    22    24    27     9
   23    22    24    25     9
   23    22    24    26     9
   23    22    24    27     9
   20    22    37    38     9
   20    22    37    39     9
   23    22    37    38     9
   23    22    37    39     9
   24    22    37    38     9
   24    22    37    39     9
   25    24    22    37     9
   26    24    22    37     9
   27    24    22    37     9
   22    24    27    28     9
   22    24    27    29     9
   22    24    27    33     9
   25    24    27    28     9
   25    24    27    29     9
   25    24    27    33     9
   26    24    27    28     9
   26    24    27    29     9
   26    24    27    33     9
   24    27    29    30     9
   24    27    29    31     9
   24    27    29    32     9
   28    27    29    30     9
   28    27    29    31     9
   28    27    29    32     9
   24    27    33    34     9
   24    27    33    35     9
   24    27    33    36     9
   28    27    33    34     9
   28    27    33    35     9
   28    27    33    36     9
   29    27    33    34     9
   29    27    33    35     9
   29    27    33    36     9
   30    29    27    33     9
   31    29    27    33     9
   32    29    27    33     9
   22    37    39    40     9
   22    37    39    41     9
   38    37    39    40     9
   38    37    39    41     9
   37    39    41    42     9
   37    39    41    43     9
   37    39    41    47     9
   40    39    41    42     9
   40    39    41    43     9
   40    39    41    47     9
   39    41    43    44     9
   39    41    43    45     9
   39    41    43    46     9
   42    41    43    44     9
   42    41    43    45     9
   42    41    43    46     9
   39    41    47    48     9
   39    41    47    49     9
   42    41    47    48     9
   42    41    47    49     9
   43    41    47    48     9
   43    41    47    49     9
   44    43    41    47     9
   45    43    41    47     9
   46    43    41    47     9
   41    47    49    50     9
   41    47    49    51     9
   48    47    49    50     9
   48    47    49    51     9
   47    49    51    52     9
   47    49    51    53     9
   47    49    51    63     9
   50    49    51    52     9
   50    49    51    53     9
   50    49    51    63     9
   49    51    53    54     9
   49    51    53    55     9
   49    51    53    59     9
   52    51    53    54     9
   52    51    53    55     9
   52    51    53    59     9
   49    51    63    64     9
   49    51    63    65     9
   52    51    63    64     9
   52    51    63    65     9
   53    51    63    64     9
   53    51    63    65     9
   54    53    51    63     9
   55    53    51    63     9
   59    53    51    63     9
   51    53    55    56     9
   51    53    55    57     9
   51    53    55    58     9
   54    53    55    56     9
   54    53    55    57     9
   54    53    55    58     9
   51    53    59    60     9
   51    53    59    61     9
   51    53    59    62     9
   54    53    59    60     9
   54    53    59    61     9
   54    53    59    62     9
   55    53    59    60     9
   55    53    59    61     9
   55    53    59    62     9
   56    55    53    59     9
   57    55    53    59     9
   58    55    53    59     9
   51    63    65    66     9
   51    63    65    67     9
   64    63    65    66     9
   64    63    65    67     9
   63    65    67    68     9
   63    65    67    69     9
   63    65    67    79     9
   66    65    67    68     9
   66    65    67    69     9
   66    65    67    79     9
   65    67    69    70     9
   65    67    69    71     9
   65    67    69    75     9
   68    67    69    70     9
   68    67    69    71     9
   68    67    69    75     9
   65    67    79    80     9
   65    67    79    81     9
   68    67    79    80     9
   68    67    79    81     9
   69    67    79    80     9
   69    67    79    81     9
   70    69    67    79     9
   71    69    67    79     9
   75    69    67    79     9
   67    69    71    72     9
   67    69    71    73     9
   67    69    71    74     9
   70    69    71    72     9
   70    69    71    73     9
   70    69    71    74     9
   67    69    75    76     9
   67    69    75    77     9
   67    69    75    78     9
   70    69    75    76     9
   70    69    75    77     9
   70    69    75    78     9
   71    69    75    76     9
   71    69    75    77     9
   71    69    75    78     9
   72    71    69    75     9
   73    71    69    75     9
   74    71    69    75     9
   67    79    81    82     9
   67    79    81    83     9
   80    79    81    82     9
   80    79    81    83     9
   79    81    83    84     9
   79    81    83    85     9
   79    81    83    95     9
   82    81    83    84     9
   82    81    83    85     9
   82    81    83    95     9
   81    83    85    86     9
   81    83    85    87     9
   81    83    85    91     9
   84    83    85    86     9
   84    83    85    87     9
   84    83    85    91     9
   81    83    95    96     9
   81    83    95    97     9
   84    83    95    96     9
   84    83    95    97     9
   85    83    95    96     9
   85    83    95    97     9
   86    85    83    95     9
   87    85    83    95     9
   91    85    83    95     9
   83    85    87    88     9
   83    85    87    89     9
   83    85    87    90     9
   86    85    87    88     9
   86    85    87    89     9
   86    85    87    90     9
   83    85    91    92     9
   83    85    91    93     9
   83    85    91    94     9
   86    85    91    92     9
   86    85    91    93     9
   86    85    91    94     9
   87    85    91    92     9
   87    85    91    93     9
   87    85    91    94     9
   88    87    85    91     9
   89    87    85    91     9
   90    87    85    91     9
   83    95    97    98     9
   83    95    97    99     9
   96    95    97    98     9
   96    95    97    99     9
   95    97    99   100     9
   95    97    99   101     9
   95    97    99   119     9
   98    97    99   100     9
   98    97    99   101     9
   98    97    99   119     9
   97    99   101   102     9
   97    99   101   103     9
   97    99   101   104     9
  100    99   101   102     9
  100    99   101   103     9
  100    99   101   104     9
   97    99   119   120     9
   97    99   119   121     9
  100    99   119   120     9
  100    99   119   121     9
  101    99   119   120     9
  101    99   119   121     9
  102   101    99   119     9
  103   101    99   119     9
  104   101    99   119     9
   99   101   104   105     9
   99   101   104   110     9
  102   101   104   105     9
  102   101   104   110     9
  103   101   104   105     9
  103   101   104   110     9
  101   104   105   106     9
  101   104   105   107     9
  101   104   110   109     9
  101   104   110   111     9
  105   104   110   109     9
  105   104   110   111     9
  106   105   104   110     9
  107   105   104   110     9
  104   105   107   108     9
  104   105   107   109     9
  106   105   107   108     9
  106   105   107   109     9
  105   107   109   110     9
  105   107   109   115     9
  108   107   109   110     9
  108   107   109   115     9
  107   109   110   111     9
  107   109   115   116     9
  107   109   115   117     9
  110   109   115   116     9
  110   109   115   117     9
  104   110   109   107     9
  104   110   109   115     9
  111   110   109   115     9
  104   110   111   112     9
  104   110   111   113     9
  109   110   111   112     9
  109   110   111   113     9
  110   111   113   114     9
  110   111   113   117     9
  112   111   113   114     9
  112   111   113   117     9
  111   113   117   115     9
  111   113   117   118     9
  114   113   117   115     9
  114   113   117   118     9
  109   115   117   113     9
  109   115   117   118     9
  116   115   117   118     9
  113   117   115   116     9
   99   119   121   122     9
   99   119   121   123     9
  120   119   121   122     9
  120   119   121   123     9
  119   121   123   124     9
  119   121   123   125     9
  119   121   123   138     9
  122   121   123   124     9
  122   121   123   125     9
  122   121   123   138     9
  121   123   125   126     9
  121   123   125   127     9
  121   123   125   128     9
  124   123   125   126     9
  124   123   125   127     9
  124   123   125   128     9
  121   123   138   139     9
  121   123   138   140     9
  124   123   138   139     9
  124   123   138   140     9
  125   123   138   139     9
  125   123   138   140     9
  126   125   123   138     9
  127   125   123   138     9
  128   125   123   138     9
  123   125   128   129     9
  123   125   128   130     9
  123   125   128   134     9
  126   125   128   129     9
  126   125   128   130     9
  126   125   128   134     9
  127   125   128   129     9
  127   125   128   130     9
  127   125   128   134     9
  125   128   130   131     9
  125   128   130   132     9
  125   128   130   133     9
  129   128   130   131     9
  129   128   130   132     9
  129   128   130   133     9
  125   128   134   135     9
  125   128   134   136     9
  125   128   134   137     9
  129   128   134   135     9
  129   128   134   136     9
  129   128   134   137     9
  130   128   134   135     9
  130   128   134   136     9
  130   128   134   137     9
  131   130   128   134     9
  132   130   128   134     9
  133   130   128   134     9
  123   138   140   141     9
  123   138   140   142     9
  139   138   140   141     9
  139   138   140   142     9
  138   140   142   143     9
  138   140   142   144     9
  138   140   142   162     9
  141   140   142   143     9
  141   140   142   144     9
  141   140   142   162     9
  140   142   144   145     9
  140   142   144   146     9
  140   142   144   147     9
  143   142   144   145     9
  143   142   144   146     9
  143   142   144   147     9
  140   142   162   163     9
  140   142   162   164     9
  143   142   162   163     9
  143   142   162   164     9
  144   142   162   163     9
  144   142   162   164     9
  145   144   142   162     9
  146   144   142   162     9
  147   144   142   162     9
  142   144   147   148     9
  142   144   147   153     9
  145   144   147   148     9
  145   144   147   153     9
  146   144   147   148     9
  146   144   147   153     9
  144   147   148   149     9
  144   147   148   150     9
  144   147   153   152     9
  144   147   153   154     9
  148   147   153   152     9
  148   147   153   154     9
  149   148   147   153     9
  150   148   147   153     9
  147   148   150   151     9
  147   148   150   152     9
  149   148   150   151     9
  149   148   150   152     9
  148   150   152   153     9
  148   150   152   158     9
  151   150   152   153     9
  151   150   152   158     9
  150   152   153   154     9
  150   152   158   159     9
  150   152   158   160     9
  153   152   158   159     9
  153   152   158   160     9
  147   153   152   150     9
  147   153   152   158     9
  154   153   152   158     9
  147   153   154   155     9
  147   153   154   156     9
  152   153   154   155     9
  152   153   154   156     9
  153   154   156   157     9
  153   154   156   160     9
  155   154   156   157     9
  155   154   156   160     9
  154   156   160   158     9
  154   156   160   161     9
  157   156   160   158     9
  157   156   160   161     9
  152   158   160   156     9
  152   158   160   161     9
  159   158   160   161     9
  156   160   158   159     9
  142   162   164   165     9
  142   162   164   166     9
  163   162   164   165     9
  163   162   164   166     9
  162   164   166   167     9
  162   164   166   168     9
  162   164   166   181     9
  165   164   166   167     9
  165   164   166   168     9
  165   164   166   181     9
  164   166   168   169     9
  164   166   168   170     9
  164   166   168   171     9
  167   166   168   169     9
  167   166   168   170     9
  167   166   168   171     9
  164   166   181   182     9
  164   166   181   183     9
  167   166   181   182     9
  167   166   181   183     9
  168   166   181   182     9
  168   166   181   183     9
  169   168   166   181     9
  170   168   166   181     9
  171   168   166   181     9
  166   168   171   172     9
  166   168   171   173     9
  166   168   171   177     9
  169   168   171   172     9
  169   168   171   173     9
  169   168   171   177     9
  170   168   171   172     9
  170   168   171   173     9
  170   168   171   177     9
  168   171   173   174     9
  168   171   173   175     9
  168   171   173   176     9
  172   171   173   174     9
  172   171   173   175     9
  172   171   173   176     9
  168   171   177   178     9
  168   171   177   179     9
  168   171   177   180     9
  172   171   177   178     9
  172   171   177   179     9
  172   171   177   180     9
  173   171   177   178     9
  173   171   177   179     9
  173   171   177   180     9
  174   173   171   177     9
  175   173   171   177     9
  176   173   171   177     9
  166   181   183   184     9
  166   181   183   185     9
  182   181   183   184     9
  182   181   183   185     9
  181   183   185   186     9
  181   183   185   187     9
  181   183   185   205     9
  184   183   185   186     9
  184   183   185   187     9
  184   183   185   205     9
  183   185   187   188     9
  183   185   187   189     9
  183   185   187   190     9
  186   185   187   188     9
  186   185   187   189     9
  186   185   187   190     9
  183   185   205   206     9
  183   185   205   207     9
  186   185   205   206     9
  186   185   205   207     9
  187   185   205   206     9
  187   185   205   207     9
  188   187   185   205     9
  189   187   185   205     9
  190   187   185   205     9
  185   187   190   191     9
  185   187   190   196     9
  188   187   190   191     9
  188   187   190   196     9
  189   187   190   191     9
  189   187   190   196     9
  187   190   191   192     9
  187   190   191   193     9
  187   190   196   195     9
  187   190   196   197     9
  191   190   196   195     9
  191   190   196   197     9
  192   191   190   196     9
  193   191   190   196     9
  190   191   193   194     9
  190   191   193   195     9
  192   191   193   194     9
  192   191   193   195     9
  191   193   195   196     9
  191   193   195   201     9
  194   193   195   196     9
  194   193   195   201     9
  193   195   196   197     9
  193   195   201   202     9
  193   195   201   203     9
  196   195   201   202     9
  196   195   201   203     9
  190   196   195   193     9
  190   196   195   201     9
  197   196   195   201     9
  190   196   197   198     9
  190   196   197   199     9
  195   196   197   198     9
  195   196   197   199     9
  196   197   199   200     9
  196   197   199   203     9
  198   197   199   200     9
  198   197   199   203     9
  197   199   203   201     9
  197   199   203   204     9
  200   199   203   201     9
  200   199   203   204     9
  195   201   203   199     9
  195   201   203   204     9
  202   201   203   204     9
  199   203   201   202     9
  185   205   207   208     9
  185   205   207   209     9
  206   205   207   208     9
  206   205   207   209     9
  205   207   209   210     9
  205   207   209   211     9
  205   207   209   224     9
  208   207   209   210     9
  208   207   209   211     9
  208   207   209   224     9
  207   209   211   212     9
  207   209   211   213     9
  207   209   211   214     9
  210   209   211   212     9
  210   209   211   213     9
  210   209   211   214     9
  207   209   224   225     9
  207   209   224   226     9
  210   209   224   225     9
  210   209   224   226     9
  211   209   224   225     9
  211   209   224   226     9
  212   211   209   224     9
  213   211   209   224     9
  214   211   209   224     9
  209   211   214   215     9
  209   211   214   216     9
  209   211   214   220     9
  212   211   214   215     9
  212   211   214   216     9
  212   211   214   220     9
  213   211   214   215     9
  213   211   214   216     9
  213   211   214   220     9
  211   214   216   217     9
  211   214   216   218     9
  211   214   216   219     9
  215   214   216   217     9
  215   214   216   218     9
  215   214   216   219     9
  211   214   220   221     9
  211   214   220   222     9
  211   214   220   223     9
  215   214   220   221     9
  215   214   220   222     9
  215   214   220   223     9
  216   214   220   221     9
  216   214   220   222     9
  216   214   220   223     9
  217   216   214   220     9
  218   216   214   220     9
  219   216   214   220     9
  209   224   226   227     9
  209   224   226   228     9
  225   224   226   227     9
  225   224   226   228     9
  224   226   228   229     9
  224   226   228   230     9
  224   226   228   248     9
  227   226   228   229     9
  227   226   228   230     9
  227   226   228   248     9
  226   228   230   231     9
  226   228   230   232     9
  226   228   230   233     9
  229   228   230   231     9
  229   228   230   232     9
  229   228   230   233     9
  226   228   248   249     9
  226   228   248   250     9
  229   228   248   249     9
  229   228   248   250     9
  230   228   248   249     9
  230   228   248   250     9
  231   230   228   248     9
  232   230   228   248     9
  233   230   228   248     9
  228   230   233   234     9
  228   230   233   239     9
  231   230   233   234     9
  231   230   233   239     9
  232   230   233   234     9
  232   230   233   239     9
  230   233   234   235     9
  230   233   234   236     9
  230   233   239   238     9
  230   233   239   240     9
  234   233   239   238     9
  234   233   239   240     9
  235   234   233   239     9
  236   234   233   239     9
  233   234   236   237     9
  233   234   236   238     9
  235   234   236   237     9
  235   234   236   238     9
  234   236   238   239     9
  234   236   238   244     9
  237   236   238   239     9
  237   236   238   244     9
  236   238   239   240     9
  236   238   244   245     9
  236   238   244   246     9
  239   238   244   245     9
  239   238   244   246     9
  233   239   238   236     9
  233   239   238   244     9
  240   239   238   244     9
  233   239   240   241     9
  233   239   240   242     9
  238   239   240   241     9
  238   239   240   242     9
  239   240   242   243     9
  239   240   242   246     9
  241   240   242   243     9
  241   240   242   246     9
  240   242   246   244     9
  240   242   246   247     9
  243   242   246   244     9
  243   242   246   247     9
  238   244   246   242     9
  238   244   246   247     9
  245   244   246   247     9
  242   246   244   245     9

[ dihedrals ]
; ai	aj	ak	al	funct	q0	cq
    8     5    10     9     2
   10     8    12    11     2
   18    12    20    19     2
   20    18    22    21     2
   37    22    39    38     2
   39    37    41    40     2
   47    41    49    48     2
   49    47    51    50     2
   63    51    65    64     2
   65    63    67    66     2
   79    67    81    80     2
   81    79    83    82     2
   95    83    97    96     2
   97    95    99    98     2
  119    99   121   120     2
  121   119   123   122     2
  138   123   140   139     2
  140   138   142   141     2
  162   142   164   163     2
  164   162   166   165     2
  181   166   183   182     2
  183   181   185   184     2
  205   185   207   206     2
  207   205   209   208     2
  224   209   226   225     2
  226   224   228   227     2
  248   228   250   249     2

[ cmap ] 
; ai	aj	ak	al	am	funct
    8    10    12    18    20     1
   18    20    22    37    39     1
   37    39    41    47    49     1
   47    49    51    63    65     1
   63    65    67    79    81     1
   79    81    83    95    97     1
   95    97    99   119   121     1
  119   121   123   138   140     1
  138   140   142   162   164     1
  162   164   166   181   183     1
  181   183   185   205   207     1
  205   207   209   224   226     1

#ifdef POSRES
[ position_restraints ]
    1     1    POSRES_FC_BB    POSRES_FC_BB    POSRES_FC_BB   
    5     1    POSRES_FC_BB    POSRES_FC_BB    POSRES_FC_BB   
    8     1    POSRES_FC_BB    POSRES_FC_BB    POSRES_FC_BB   
    9     1    POSRES_FC_BB    POSRES_FC_BB    POSRES_FC_BB   
   10     1    POSRES_FC_BB    POSRES_FC_BB    POSRES_FC_BB   
   12     1    POSRES_FC_BB    POSRES_FC_BB    POSRES_FC_BB   
   14     1    POSRES_FC_SC    POSRES_FC_SC    POSRES_FC_SC   
   18     1    POSRES_FC_BB    POSRES_FC_BB    POSRES_FC_BB   
   19     1    POSRES_FC_BB    POSRES_FC_BB    POSRES_FC_BB   
   20     1    POSRES_FC_BB    POSRES_FC_BB    POSRES_FC_BB   
   22     1    POSRES_FC_BB    POSRES_FC_BB    POSRES_FC_BB   
   24     1    POSRES_FC_SC    POSRES_FC_SC    POSRES_FC_SC   
   27     1    POSRES_FC_SC    POSRES_FC_SC    POSRES_FC_SC   
   29     1    POSRES_FC_SC    POSRES_FC_SC    POSRES_FC_SC   
   33     1    POSRES_FC_SC    POSRES_FC_SC    POSRES_FC_SC   
   37     1    POSRES_FC_BB    POSRES_FC_BB    POSRES_FC_BB   
   38     1    POSRES_FC_BB    POSRES_FC_BB    POSRES_FC_BB   
   39     1    POSRES_FC_BB    POSRES_FC_BB    POSRES_FC_BB   
   41     1    POSRES_FC_BB    POSRES_FC_BB    POSRES_FC_BB   
   43     1    POSRES_FC_SC    POSRES_FC_SC    POSRES_FC_SC   
   47     1    POSRES_FC_BB    POSRES_FC_BB    POSRES_FC_BB   
   48     1    POSRES_FC_BB    POSRES_FC_BB    POSRES_FC_BB   
   49     1    POSRES_FC_BB    POSRES_FC_BB    POSRES_FC_BB   
   51     1    POSRES_FC_BB    POSRES_FC_BB    POSRES_FC_BB   
   53     1    POSRES_FC_SC    POSRES_FC_SC    POSRES_FC_SC   
   55     1    POSRES_FC_SC    POSRES_FC_SC    POSRES_FC_SC   
   59     1    POSRES_FC_SC    POSRES_FC_SC    POSRES_FC_SC   
   63     1    POSRES_FC_BB    POSRES_FC_BB    POSRES_FC_BB   
   64     1    POSRES_FC_BB    POSRES_FC_BB    POSRES_FC_BB   
   65     1    POSRES_FC_BB    POSRES_FC_BB    POSRES_FC_BB   
   67     1    POSRES_FC_BB    POSRES_FC_BB    POSRES_FC_BB   
   69     1    POSRES_FC_SC    POSRES_FC_SC    POSRES_FC_SC   
   71     1    POSRES_FC_SC    POSRES_FC_SC    POSRES_FC_SC   
   75     1    POSRES_FC_SC    POSRES_FC_SC    POSRES_FC_SC   
   79     1    POSRES_FC_BB    POSRES_FC_BB    POSRES_FC_BB   
   80     1    POSRES_FC_BB    POSRES_FC_BB    POSRES_FC_BB   
   81     1    POSRES_FC_BB    POSRES_FC_BB    POSRES_FC_BB   
   83     1    POSRES_FC_BB    POSRES_FC_BB    POSRES_FC_BB   
   85     1    POSRES_FC_SC    POSRES_FC_SC    POSRES_FC_SC   
   87     1    POSRES_FC_SC    POSRES_FC_SC    POSRES_FC_SC   
   91     1    POSRES_FC_SC    POSRES_FC_SC    POSRES_FC_SC   
   95     1    POSRES_FC_BB    POSRES_FC_BB    POSRES_FC_BB   
   96     1    POSRES_FC_BB    POSRES_FC_BB    POSRES_FC_BB   
   97     1    POSRES_FC_BB    POSRES_FC_BB    POSRES_FC_BB   
   99     1    POSRES_FC_BB    POSRES_FC_BB    POSRES_FC_BB   
  101     1    POSRES_FC_SC    POSRES_FC_SC    POSRES_FC_SC   
  104     1    POSRES_FC_SC    POSRES_FC_SC    POSRES_FC_SC   
  105     1    POSRES_FC_SC    POSRES_FC_SC    POSRES_FC_SC   
  107     1    POSRES_FC_SC    POSRES_FC_SC    POSRES_FC_SC   
  109     1    POSRES_FC_SC    POSRES_FC_SC    POSRES_FC_SC   
  110     1    POSRES_FC_SC    POSRES_FC_SC    POSRES_FC_SC   
  111     1    POSRES_FC_SC    POSRES_FC_SC    POSRES_FC_SC   
  113     1    POSRES_FC_SC    POSRES_FC_SC    POSRES_FC_SC   
  115     1    POSRES_FC_SC    POSRES_FC_SC    POSRES_FC_SC   
  117     1    POSRES_FC_SC    POSRES_FC_SC    POSRES_FC_SC   
  119     1    POSRES_FC_BB    POSRES_FC_BB    POSRES_FC_BB   
  120     1    POSRES_FC_BB    POSRES_FC_BB    POSRES_FC_BB   
  121     1    POSRES_FC_BB    POSRES_FC_BB    POSRES_FC_BB   
  123     1    POSRES_FC_BB    POSRES_FC_BB    POSRES_FC_BB   
  125     1    POSRES_FC_SC    POSRES_FC_SC    POSRES_FC_SC   
  128     1    POSRES_FC_SC    POSRES_FC_SC    POSRES_FC_SC   
  130     1    POSRES_FC_SC    POSRES_FC_SC    POSRES_FC_SC   
  134     1    POSRES_FC_SC    POSRES_FC_SC    POSRES_FC_SC   
  138     1    POSRES_FC_BB    POSRES_FC_BB    POSRES_FC_BB   
  139     1    POSRES_FC_BB    POSRES_FC_BB    POSRES_FC_BB   
  140     1    POSRES_FC_BB    POSRES_FC_BB    POSRES_FC_BB   
  142     1    POSRES_FC_BB    POSRES_FC_BB    POSRES_FC_BB   
  144     1    POSRES_FC_SC    POSRES_FC_SC    POSRES_FC_SC   
  147     1    POSRES_FC_SC    POSRES_FC_SC    POSRES_FC_SC   
  148     1    POSRES_FC_SC    POSRES_FC_SC    POSRES_FC_SC   
  150     1    POSRES_FC_SC    POSRES_FC_SC    POSRES_FC_SC   
  152     1    POSRES_FC_SC    POSRES_FC_SC    POSRES_FC_SC   
  153     1    POSRES_FC_SC    POSRES_FC_SC    POSRES_FC_SC   
  154     1    POSRES_FC_SC    POSRES_FC_SC    POSRES_FC_SC   
  156     1    POSRES_FC_SC    POSRES_FC_SC    POSRES_FC_SC   
  158     1    POSRES_FC_SC    POSRES_FC_SC    POSRES_FC_SC   
  160     1    POSRES_FC_SC    POSRES_FC_SC    POSRES_FC_SC   
  162     1    POSRES_FC_BB    POSRES_FC_BB    POSRES_FC_BB   
  163     1    POSRES_FC_BB    POSRES_FC_BB    POSRES_FC_BB   
  164     1    POSRES_FC_BB    POSRES_FC_BB    POSRES_FC_BB   
  166     1    POSRES_FC_BB    POSRES_FC_BB    POSRES_FC_BB   
  168     1    POSRES_FC_SC    POSRES_FC_SC    POSRES_FC_SC   
  171     1    POSRES_FC_SC    POSRES_FC_SC    POSRES_FC_SC   
  173     1    POSRES_FC_SC    POSRES_FC_SC    POSRES_FC_SC   
  177     1    POSRES_FC_SC    POSRES_FC_SC    POSRES_FC_SC   
  181     1    POSRES_FC_BB    POSRES_FC_BB    POSRES_FC_BB   
  182     1    POSRES_FC_BB    POSRES_FC_BB    POSRES_FC_BB   
  183     1    POSRES_FC_BB    POSRES_FC_BB    POSRES_FC_BB   
  185     1    POSRES_FC_BB    POSRES_FC_BB    POSRES_FC_BB   
  187     1    POSRES_FC_SC    POSRES_FC_SC    POSRES_FC_SC   
  190     1    POSRES_FC_SC    POSRES_FC_SC    POSRES_FC_SC   
  191     1    POSRES_FC_SC    POSRES_FC_SC    POSRES_FC_SC   
  193     1    POSRES_FC_SC    POSRES_FC_SC    POSRES_FC_SC   
  195     1    POSRES_FC_SC    POSRES_FC_SC    POSRES_FC_SC   
  196     1    POSRES_FC_SC    POSRES_FC_SC    POSRES_FC_SC   
  197     1    POSRES_FC_SC    POSRES_FC_SC    POSRES_FC_SC   
  199     1    POSRES_FC_SC    POSRES_FC_SC    POSRES_FC_SC   
  201     1    POSRES_FC_SC    POSRES_FC_SC    POSRES_FC_SC   
  203     1    POSRES_FC_SC    POSRES_FC_SC    POSRES_FC_SC   
  205     1    POSRES_FC_BB    POSRES_FC_BB    POSRES_FC_BB   
  206     1    POSRES_FC_BB    POSRES_FC_BB    POSRES_FC_BB   
  207     1    POSRES_FC_BB    POSRES_FC_BB    POSRES_FC_BB   
  209     1    POSRES_FC_BB    POSRES_FC_BB    POSRES_FC_BB   
  211     1    POSRES_FC_SC    POSRES_FC_SC    POSRES_FC_SC   
  214     1    POSRES_FC_SC    POSRES_FC_SC    POSRES_FC_SC   
  216     1    POSRES_FC_SC    POSRES_FC_SC    POSRES_FC_SC   
  220     1    POSRES_FC_SC    POSRES_FC_SC    POSRES_FC_SC   
  224     1    POSRES_FC_BB    POSRES_FC_BB    POSRES_FC_BB   
  225     1    POSRES_FC_BB    POSRES_FC_BB    POSRES_FC_BB   
  226     1    POSRES_FC_BB    POSRES_FC_BB    POSRES_FC_BB   
  228     1    POSRES_FC_BB    POSRES_FC_BB    POSRES_FC_BB   
  230     1    POSRES_FC_SC    POSRES_FC_SC    POSRES_FC_SC   
  233     1    POSRES_FC_SC    POSRES_FC_SC    POSRES_FC_SC   
  234     1    POSRES_FC_SC    POSRES_FC_SC    POSRES_FC_SC   
  236     1    POSRES_FC_SC    POSRES_FC_SC    POSRES_FC_SC   
  238     1    POSRES_FC_SC    POSRES_FC_SC    POSRES_FC_SC   
  239     1    POSRES_FC_SC    POSRES_FC_SC    POSRES_FC_SC   
  240     1    POSRES_FC_SC    POSRES_FC_SC    POSRES_FC_SC   
  242     1    POSRES_FC_SC    POSRES_FC_SC    POSRES_FC_SC   
  244     1    POSRES_FC_SC    POSRES_FC_SC    POSRES_FC_SC   
  246     1    POSRES_FC_SC    POSRES_FC_SC    POSRES_FC_SC   
  248     1    POSRES_FC_BB    POSRES_FC_BB    POSRES_FC_BB   
  249     1    POSRES_FC_SC    POSRES_FC_SC    POSRES_FC_SC   
  250     1    POSRES_FC_SC    POSRES_FC_SC    POSRES_FC_SC   
#endif
