       247  EXT
         1         1  GLY       N              -0.0720000000        3.2000000000       -1.5740000000  PROB      2               0.0000000000
         2         1  GLY       CA              1.3670000000        3.1830000000       -1.3210000000  PROB      2               0.0000000000
         3         1  GLY       C               2.1030000000        2.3170000000       -2.2620000000  PROB      2               0.0000000000
         4         1  GLY       O               1.8900000000        2.4010000000       -3.4610000000  PROB      2               0.0000000000
         5         1  GLY       H              -0.4280000000        3.0300000000       -2.5010000000  PROB      2               0.0000000000
         6         1  GLY       HA2             1.7400000000        4.1830000000       -1.4650000000  PROB      2               0.0000000000
         7         1  GLY       HA3             1.5470000000        2.8120000000       -0.3200000000  PROB      2               0.0000000000
         8         2  ALA       N               3.0240000000        1.4830000000       -1.7430000000  PROB      3               0.0000000000
         9         2  ALA       CA              3.7360000000        0.5240000000       -2.5480000000  PROB      3               0.0000000000
        10         2  ALA       C               3.3160000000       -0.8870000000       -2.2540000000  PROB      3               0.0000000000
        11         2  ALA       O               2.9320000000       -1.2090000000       -1.1390000000  PROB      3               0.0000000000
        12         2  ALA       CB              5.2670000000        0.6700000000       -2.3800000000  PROB      3               0.0000000000
        13         2  ALA       H               3.1990000000        1.4530000000       -0.7700000000  PROB      3               0.0000000000
        14         2  ALA       HA              3.4020000000        0.7040000000       -3.5300000000  PROB      3               0.0000000000
        15         2  ALA       HB1             5.5780000000        0.4730000000       -1.3360000000  PROB      3               0.0000000000
        16         2  ALA       HB2             5.7980000000       -0.0370000000       -3.0600000000  PROB      3               0.0000000000
        17         2  ALA       HB3             5.5680000000        1.6950000000       -2.6670000000  PROB      3               0.0000000000
        18         3  LEU       N               3.3630000000       -1.7700000000       -3.2640000000  PROB      4               0.0000000000
        19         3  LEU       CA              2.9270000000       -3.1520000000       -2.9530000000  PROB      4               0.0000000000
        20         3  LEU       CB              4.0410000000       -4.2470000000       -3.1040000000  PROB      4               0.0000000000
        21         3  LEU       CG              3.6150000000       -5.7280000000       -3.3740000000  PROB      4               0.0000000000
        22         3  LEU       CD1             4.6770000000       -6.5230000000       -4.1250000000  PROB      4               0.0000000000
        23         3  LEU       CD2             2.8230000000       -6.6870000000       -2.4560000000  PROB      4               0.0000000000
        24         3  LEU       C               1.7670000000       -3.4690000000       -3.8480000000  PROB      4               0.0000000000
        25         3  LEU       O               1.8720000000       -3.2790000000       -5.0520000000  PROB      4               0.0000000000
        26         3  LEU       H               3.6090000000       -1.4350000000       -4.1870000000  PROB      4               0.0000000000
        27         3  LEU       HA              2.5350000000       -3.2470000000       -1.9520000000  PROB      4               0.0000000000
        28         3  LEU       HB2             4.5960000000       -3.9340000000       -4.0240000000  PROB      4               0.0000000000
        29         3  LEU       HB3             4.8310000000       -4.1810000000       -2.3360000000  PROB      4               0.0000000000
        30         3  LEU       HG              2.7310000000       -5.6140000000       -4.0430000000  PROB      4               0.0000000000
        31         3  LEU       HD11            5.2510000000       -5.8340000000       -4.7570000000  PROB      4               0.0000000000
        32         3  LEU       HD12            5.3650000000       -7.0070000000       -3.4010000000  PROB      4               0.0000000000
        33         3  LEU       HD13            4.2160000000       -7.3170000000       -4.7590000000  PROB      4               0.0000000000
        34         3  LEU       HD21            1.8910000000       -6.2040000000       -2.0900000000  PROB      4               0.0000000000
        35         3  LEU       HD22            2.5410000000       -7.6240000000       -2.9930000000  PROB      4               0.0000000000
        36         3  LEU       HD23            3.4340000000       -6.9540000000       -1.5730000000  PROB      4               0.0000000000
        37         4  ALA       N               0.6590000000       -4.0270000000       -3.2760000000  PROB      5               0.0000000000
        38         4  ALA       CA             -0.4220000000       -4.4800000000       -4.1350000000  PROB      5               0.0000000000
        39         4  ALA       C              -1.6620000000       -3.7320000000       -3.7330000000  PROB      5               0.0000000000
        40         4  ALA       O              -2.0730000000       -3.7380000000       -2.5710000000  PROB      5               0.0000000000
        41         4  ALA       CB             -0.6550000000       -6.0060000000       -4.0400000000  PROB      5               0.0000000000
        42         4  ALA       H               0.5270000000       -4.2180000000       -2.3020000000  PROB      5               0.0000000000
        43         4  ALA       HA             -0.1860000000       -4.1350000000       -5.1220000000  PROB      5               0.0000000000
        44         4  ALA       HB1            -0.8350000000       -6.2920000000       -2.9810000000  PROB      5               0.0000000000
        45         4  ALA       HB2            -1.5310000000       -6.3110000000       -4.6480000000  PROB      5               0.0000000000
        46         4  ALA       HB3             0.2320000000       -6.5580000000       -4.4110000000  PROB      5               0.0000000000
        47         5  VAL       N              -2.3270000000       -3.0450000000       -4.6670000000  PROB      6               0.0000000000
        48         5  VAL       CA             -3.5520000000       -2.3450000000       -4.3000000000  PROB      6               0.0000000000
        49         5  VAL       CB             -4.8610000000       -3.1460000000       -4.4380000000  PROB      6               0.0000000000
        50         5  VAL       CG1            -4.8500000000       -4.3970000000       -3.5370000000  PROB      6               0.0000000000
        51         5  VAL       CG2            -6.0650000000       -2.2840000000       -3.9860000000  PROB      6               0.0000000000
        52         5  VAL       C              -3.6050000000       -1.1360000000       -5.1700000000  PROB      6               0.0000000000
        53         5  VAL       O              -3.6700000000       -1.2730000000       -6.3880000000  PROB      6               0.0000000000
        54         5  VAL       H              -1.9570000000       -2.9320000000       -5.6020000000  PROB      6               0.0000000000
        55         5  VAL       HA             -3.4640000000       -1.9590000000       -3.2900000000  PROB      6               0.0000000000
        56         5  VAL       HB             -5.0070000000       -3.4840000000       -5.4850000000  PROB      6               0.0000000000
        57         5  VAL       HG11           -4.6500000000       -4.0990000000       -2.4830000000  PROB      6               0.0000000000
        58         5  VAL       HG12           -5.8270000000       -4.9160000000       -3.5850000000  PROB      6               0.0000000000
        59         5  VAL       HG13           -4.0590000000       -5.1050000000       -3.8670000000  PROB      6               0.0000000000
        60         5  VAL       HG21           -5.8650000000       -1.8130000000       -3.0000000000  PROB      6               0.0000000000
        61         5  VAL       HG22           -6.2790000000       -1.4920000000       -4.7360000000  PROB      6               0.0000000000
        62         5  VAL       HG23           -6.9810000000       -2.9090000000       -3.9000000000  PROB      6               0.0000000000
        63         6  VAL       N              -3.5620000000        0.0710000000       -4.5580000000  PROB      7               0.0000000000
        64         6  VAL       CA             -3.5230000000        1.2630000000       -5.3950000000  PROB      7               0.0000000000
        65         6  VAL       C              -2.2440000000        2.0080000000       -5.0700000000  PROB      7               0.0000000000
        66         6  VAL       O              -1.9240000000        2.3050000000       -3.9090000000  PROB      7               0.0000000000
        67         6  VAL       CB             -4.7630000000        2.1420000000       -5.2260000000  PROB      7               0.0000000000
        68         6  VAL       CG1            -5.0740000000        2.9100000000       -6.5260000000  PROB      7               0.0000000000
        69         6  VAL       CG2            -5.9810000000        1.2790000000       -4.8220000000  PROB      7               0.0000000000
        70         6  VAL       H              -3.5160000000        0.2240000000       -3.5650000000  PROB      7               0.0000000000
        71         6  VAL       HA             -3.4340000000        0.9370000000       -6.4200000000  PROB      7               0.0000000000
        72         6  VAL       HB             -4.5960000000        2.8620000000       -4.3940000000  PROB      7               0.0000000000
        73         6  VAL       HG11           -5.2600000000        2.1840000000       -7.3470000000  PROB      7               0.0000000000
        74         6  VAL       HG12           -5.9890000000        3.5250000000       -6.3930000000  PROB      7               0.0000000000
        75         6  VAL       HG13           -4.2370000000        3.5690000000       -6.8340000000  PROB      7               0.0000000000
        76         6  VAL       HG21           -6.1370000000        0.4760000000       -5.5690000000  PROB      7               0.0000000000
        77         6  VAL       HG22           -5.8440000000        0.8250000000       -3.8140000000  PROB      7               0.0000000000
        78         6  VAL       HG23           -6.9050000000        1.8940000000       -4.7950000000  PROB      7               0.0000000000
        79         7  VAL       N              -1.3860000000        2.3680000000       -6.0410000000  PROB      8               0.0000000000
        80         7  VAL       CA             -0.3390000000        3.3420000000       -5.8740000000  PROB      8               0.0000000000
        81         7  VAL       CB             -0.8410000000        4.7780000000       -6.1100000000  PROB      8               0.0000000000
        82         7  VAL       CG1            -1.9680000000        5.1380000000       -5.1210000000  PROB      8               0.0000000000
        83         7  VAL       CG2             0.2950000000        5.7230000000       -5.7430000000  PROB      8               0.0000000000
        84         7  VAL       C               0.8240000000        3.0420000000       -6.8100000000  PROB      8               0.0000000000
        85         7  VAL       O               0.6690000000        3.0040000000       -8.0230000000  PROB      8               0.0000000000
        86         7  VAL       H              -1.5340000000        2.0320000000       -6.9770000000  PROB      8               0.0000000000
        87         7  VAL       HA              0.1160000000        3.2420000000       -4.9000000000  PROB      8               0.0000000000
        88         7  VAL       HB             -1.2620000000        4.9360000000       -7.1280000000  PROB      8               0.0000000000
        89         7  VAL       HG11           -1.6590000000        4.9120000000       -4.0790000000  PROB      8               0.0000000000
        90         7  VAL       HG12           -2.2110000000        6.2140000000       -5.2010000000  PROB      8               0.0000000000
        91         7  VAL       HG13           -2.8940000000        4.5700000000       -5.3420000000  PROB      8               0.0000000000
        92         7  VAL       HG21            0.7080000000        5.4630000000       -4.7460000000  PROB      8               0.0000000000
        93         7  VAL       HG22            1.1140000000        5.6590000000       -6.4970000000  PROB      8               0.0000000000
        94         7  VAL       HG23           -0.0500000000        6.7750000000       -5.7240000000  PROB      8               0.0000000000
        95         8  TRP       N               2.0180000000        2.8240000000       -6.2170000000  PROB      9               0.0000000000
        96         8  TRP       CA              3.2280000000        2.4820000000       -6.9420000000  PROB      9               0.0000000000
        97         8  TRP       C               3.6230000000        1.0230000000       -6.6990000000  PROB      9               0.0000000000
        98         8  TRP       O               3.7090000000        0.5110000000       -5.5760000000  PROB      9               0.0000000000
        99         8  TRP       CB              4.4220000000        3.4340000000       -6.6050000000  PROB      9               0.0000000000
       100         8  TRP       CG              4.3210000000        4.8120000000       -7.2560000000  PROB      9               0.0000000000
       101         8  TRP       CD1             4.6220000000        5.1620000000       -8.5430000000  PROB      9               0.0000000000
       102         8  TRP       CD2             3.7890000000        6.0010000000       -6.6410000000  PROB      9               0.0000000000
       103         8  TRP       NE1             4.2060000000        6.4510000000       -8.8070000000  PROB      9               0.0000000000
       104         8  TRP       CE2             3.6760000000        6.9840000000       -7.6580000000  PROB      9               0.0000000000
       105         8  TRP       CE3             3.3660000000        6.2630000000       -5.3390000000  PROB      9               0.0000000000
       106         8  TRP       CZ2             3.0990000000        8.2210000000       -7.3990000000  PROB      9               0.0000000000
       107         8  TRP       CZ3             2.7880000000        7.5140000000       -5.0830000000  PROB      9               0.0000000000
       108         8  TRP       CH2             2.6430000000        8.4730000000       -6.1010000000  PROB      9               0.0000000000
       109         8  TRP       H               2.1440000000        2.8000000000       -5.2240000000  PROB      9               0.0000000000
       110         8  TRP       HA              3.0380000000        2.5790000000       -7.9990000000  PROB      9               0.0000000000
       111         8  TRP       HB2             4.4890000000        3.5340000000       -5.5000000000  PROB      9               0.0000000000
       112         8  TRP       HB3             5.3670000000        2.9810000000       -6.9840000000  PROB      9               0.0000000000
       113         8  TRP       HD1             5.0340000000        4.4980000000       -9.2900000000  PROB      9               0.0000000000
       114         8  TRP       HE1             4.4160000000        6.9270000000       -9.6330000000  PROB      9               0.0000000000
       115         8  TRP       HE3             3.4100000000        5.5250000000       -4.5580000000  PROB      9               0.0000000000
       116         8  TRP       HZ2             2.9630000000        8.9540000000       -8.1800000000  PROB      9               0.0000000000
       117         8  TRP       HZ3             2.3260000000        7.7310000000       -4.1290000000  PROB      9               0.0000000000
       118         8  TRP       HH2             2.1600000000        9.3990000000       -5.8020000000  PROB      9               0.0000000000
       119         9  LEU       N               3.8800000000        0.2490000000       -7.7630000000  PROB      10              0.0000000000
       120         9  LEU       CA              4.1620000000       -1.1610000000       -7.5420000000  PROB      10              0.0000000000
       121         9  LEU       CB              5.6670000000       -1.5600000000       -7.3660000000  PROB      10              0.0000000000
       122         9  LEU       CG              6.6820000000       -1.5670000000       -8.5530000000  PROB      10              0.0000000000
       123         9  LEU       CD1             6.3110000000       -2.7120000000       -9.5180000000  PROB      10              0.0000000000
       124         9  LEU       CD2             7.0980000000       -0.2700000000       -9.2610000000  PROB      10              0.0000000000
       125         9  LEU       C               3.2770000000       -2.0110000000       -8.4210000000  PROB      10              0.0000000000
       126         9  LEU       O               3.1520000000       -1.8060000000       -9.6250000000  PROB      10              0.0000000000
       127         9  LEU       H               3.5900000000        0.6370000000       -8.6450000000  PROB      10              0.0000000000
       128         9  LEU       HA              3.8620000000       -1.4160000000       -6.5340000000  PROB      10              0.0000000000
       129         9  LEU       HB2             6.1630000000       -0.9080000000       -6.6110000000  PROB      10              0.0000000000
       130         9  LEU       HB3             5.6510000000       -2.6690000000       -7.2270000000  PROB      10              0.0000000000
       131         9  LEU       HG              7.6350000000       -1.9150000000       -8.0700000000  PROB      10              0.0000000000
       132         9  LEU       HD11            5.3220000000       -2.5390000000       -9.9840000000  PROB      10              0.0000000000
       133         9  LEU       HD12            7.0510000000       -2.7710000000      -10.3430000000  PROB      10              0.0000000000
       134         9  LEU       HD13            6.2860000000       -3.6960000000       -9.0150000000  PROB      10              0.0000000000
       135         9  LEU       HD21            6.4300000000        0.5740000000       -8.9980000000  PROB      10              0.0000000000
       136         9  LEU       HD22            8.1250000000        0.0010000000       -8.9220000000  PROB      10              0.0000000000
       137         9  LEU       HD23            7.1510000000       -0.4010000000      -10.3520000000  PROB      10              0.0000000000
       138        10  TRP       N               2.5720000000       -2.9630000000       -7.7950000000  PROB      11              0.0000000000
       139        10  TRP       CA              1.6320000000       -3.7800000000       -8.5100000000  PROB      11              0.0000000000
       140        10  TRP       C               0.1770000000       -3.4470000000       -8.1460000000  PROB      11              0.0000000000
       141        10  TRP       O              -0.2510000000       -3.0440000000       -7.0580000000  PROB      11              0.0000000000
       142        10  TRP       CB              1.9740000000       -5.2960000000       -8.3720000000  PROB      11              0.0000000000
       143        10  TRP       CG              3.2580000000       -5.7530000000       -9.0930000000  PROB      11              0.0000000000
       144        10  TRP       CD1             3.4130000000       -6.2580000000      -10.3600000000  PROB      11              0.0000000000
       145        10  TRP       CD2             4.5810000000       -5.7770000000       -8.5110000000  PROB      11              0.0000000000
       146        10  TRP       NE1             4.7280000000       -6.6410000000      -10.5690000000  PROB      11              0.0000000000
       147        10  TRP       CE2             5.4590000000       -6.3470000000       -9.4540000000  PROB      11              0.0000000000
       148        10  TRP       CE3             5.0610000000       -5.3740000000       -7.2730000000  PROB      11              0.0000000000
       149        10  TRP       CZ2             6.8150000000       -6.5240000000       -9.1840000000  PROB      11              0.0000000000
       150        10  TRP       CZ3             6.4300000000       -5.5610000000       -6.9890000000  PROB      11              0.0000000000
       151        10  TRP       CH2             7.2930000000       -6.1460000000       -7.9170000000  PROB      11              0.0000000000
       152        10  TRP       H               2.5950000000       -3.1380000000       -6.8100000000  PROB      11              0.0000000000
       153        10  TRP       HA              1.6940000000       -3.5820000000       -9.5730000000  PROB      11              0.0000000000
       154        10  TRP       HB2             2.0440000000       -5.5500000000       -7.2940000000  PROB      11              0.0000000000
       155        10  TRP       HB3             1.1430000000       -5.9000000000       -8.7960000000  PROB      11              0.0000000000
       156        10  TRP       HD1             2.7010000000       -6.2490000000      -11.1740000000  PROB      11              0.0000000000
       157        10  TRP       HE1             5.1570000000       -6.9380000000      -11.3930000000  PROB      11              0.0000000000
       158        10  TRP       HE3             4.3940000000       -4.9320000000       -6.5460000000  PROB      11              0.0000000000
       159        10  TRP       HZ2             7.4780000000       -6.9790000000       -9.9010000000  PROB      11              0.0000000000
       160        10  TRP       HZ3             6.6980000000       -5.4490000000       -5.9530000000  PROB      11              0.0000000000
       161        10  TRP       HH2             8.3260000000       -6.3260000000       -7.6500000000  PROB      11              0.0000000000
       162        11  LEU       N              -0.6780000000       -3.6950000000       -9.1320000000  PROB      12              0.0000000000
       163        11  LEU       CA             -2.0990000000       -3.7260000000       -9.0150000000  PROB      12              0.0000000000
       164        11  LEU       CB             -2.3540000000       -5.1300000000       -9.5950000000  PROB      12              0.0000000000
       165        11  LEU       CG             -3.7420000000       -5.7390000000       -9.8020000000  PROB      12              0.0000000000
       166        11  LEU       CD1            -4.7890000000       -5.9660000000       -8.6930000000  PROB      12              0.0000000000
       167        11  LEU       CD2            -4.6350000000       -4.8890000000      -10.7100000000  PROB      12              0.0000000000
       168        11  LEU       C              -2.6170000000       -2.5630000000       -9.8620000000  PROB      12              0.0000000000
       169        11  LEU       O              -2.3660000000       -2.4840000000      -11.0640000000  PROB      12              0.0000000000
       170        11  LEU       H              -0.3730000000       -3.9990000000      -10.0290000000  PROB      12              0.0000000000
       171        11  LEU       HA             -2.4060000000       -3.6270000000       -7.9760000000  PROB      12              0.0000000000
       172        11  LEU       HB2            -1.8920000000       -5.0910000000      -10.6150000000  PROB      12              0.0000000000
       173        11  LEU       HB3            -1.6980000000       -5.8950000000       -9.1200000000  PROB      12              0.0000000000
       174        11  LEU       HG             -3.5540000000       -6.8070000000      -10.0640000000  PROB      12              0.0000000000
       175        11  LEU       HD11           -5.0190000000       -5.0040000000       -8.1980000000  PROB      12              0.0000000000
       176        11  LEU       HD12           -5.7200000000       -6.4280000000       -9.0780000000  PROB      12              0.0000000000
       177        11  LEU       HD13           -4.3660000000       -6.6330000000       -7.9130000000  PROB      12              0.0000000000
       178        11  LEU       HD21           -4.1180000000       -4.6850000000      -11.6710000000  PROB      12              0.0000000000
       179        11  LEU       HD22           -5.5840000000       -5.4200000000      -10.9240000000  PROB      12              0.0000000000
       180        11  LEU       HD23           -4.8720000000       -3.9110000000      -10.2320000000  PROB      12              0.0000000000
       181        12  TRP       N              -3.3120000000       -1.6080000000       -9.2250000000  PROB      13              0.0000000000
       182        12  TRP       CA             -3.7290000000       -0.4110000000       -9.9160000000  PROB      13              0.0000000000
       183        12  TRP       C              -2.8060000000        0.7670000000       -9.5940000000  PROB      13              0.0000000000
       184        12  TRP       O              -2.2210000000        0.9170000000       -8.5180000000  PROB      13              0.0000000000
       185        12  TRP       CB             -5.2180000000       -0.0470000000       -9.6100000000  PROB      13              0.0000000000
       186        12  TRP       CG             -6.2250000000       -1.0850000000      -10.0990000000  PROB      13              0.0000000000
       187        12  TRP       CD1            -6.8260000000       -1.2080000000      -11.3190000000  PROB      13              0.0000000000
       188        12  TRP       CD2            -6.7210000000       -2.1780000000       -9.3060000000  PROB      13              0.0000000000
       189        12  TRP       NE1            -7.5920000000       -2.3570000000      -11.3730000000  PROB      13              0.0000000000
       190        12  TRP       CE2            -7.5550000000       -2.9590000000      -10.1390000000  PROB      13              0.0000000000
       191        12  TRP       CE3            -6.4900000000       -2.5320000000       -7.9740000000  PROB      13              0.0000000000
       192        12  TRP       CZ2            -8.1530000000       -4.1180000000       -9.6580000000  PROB      13              0.0000000000
       193        12  TRP       CZ3            -7.1170000000       -3.6820000000       -7.4810000000  PROB      13              0.0000000000
       194        12  TRP       CH2            -7.9160000000       -4.4740000000       -8.3150000000  PROB      13              0.0000000000
       195        12  TRP       H              -3.5300000000       -1.6650000000       -8.2510000000  PROB      13              0.0000000000
       196        12  TRP       HA             -3.6700000000       -0.5660000000      -10.9850000000  PROB      13              0.0000000000
       197        12  TRP       HB2            -5.3430000000        0.0880000000       -8.5120000000  PROB      13              0.0000000000
       198        12  TRP       HB3            -5.4870000000        0.9120000000      -10.0990000000  PROB      13              0.0000000000
       199        12  TRP       HD1            -6.6590000000       -0.5680000000      -12.1750000000  PROB      13              0.0000000000
       200        12  TRP       HE1            -8.1450000000       -2.5580000000      -12.1530000000  PROB      13              0.0000000000
       201        12  TRP       HE3            -5.8000000000       -1.9250000000       -7.4210000000  PROB      13              0.0000000000
       202        12  TRP       HZ2            -8.8160000000       -4.7490000000      -10.2240000000  PROB      13              0.0000000000
       203        12  TRP       HZ3            -6.9820000000       -3.9550000000       -6.4480000000  PROB      13              0.0000000000
       204        12  TRP       HH2            -8.3580000000       -5.3970000000       -7.9610000000  PROB      13              0.0000000000
       205        13  LEU       N              -2.7390000000        1.7150000000      -10.5330000000  PROB      14              0.0000000000
       206        13  LEU       CA             -2.1870000000        3.0370000000      -10.4830000000  PROB      14              0.0000000000
       207        13  LEU       CB             -3.4630000000        3.8050000000      -10.9490000000  PROB      14              0.0000000000
       208        13  LEU       CG             -3.5430000000        5.3210000000      -11.2220000000  PROB      14              0.0000000000
       209        13  LEU       CD1            -3.5610000000        6.3850000000      -10.0880000000  PROB      14              0.0000000000
       210        13  LEU       CD2            -2.4370000000        5.8440000000      -12.1290000000  PROB      14              0.0000000000
       211        13  LEU       C              -0.9320000000        3.0710000000      -11.3870000000  PROB      14              0.0000000000
       212        13  LEU       O              -0.9930000000        2.8490000000      -12.5980000000  PROB      14              0.0000000000
       213        13  LEU       H              -3.2150000000        1.5730000000      -11.3940000000  PROB      14              0.0000000000
       214        13  LEU       HA             -1.9160000000        3.2650000000       -9.4580000000  PROB      14              0.0000000000
       215        13  LEU       HB2            -3.7220000000        3.4050000000      -11.9620000000  PROB      14              0.0000000000
       216        13  LEU       HB3            -4.2150000000        3.5770000000      -10.1600000000  PROB      14              0.0000000000
       217        13  LEU       HG             -4.6290000000        5.4700000000      -11.4460000000  PROB      14              0.0000000000
       218        13  LEU       HD11           -2.8660000000        6.0890000000       -9.2780000000  PROB      14              0.0000000000
       219        13  LEU       HD12           -3.2830000000        7.3870000000      -10.4580000000  PROB      14              0.0000000000
       220        13  LEU       HD13           -4.5790000000        6.4510000000       -9.6420000000  PROB      14              0.0000000000
       221        13  LEU       HD21           -2.4300000000        5.2790000000      -13.0860000000  PROB      14              0.0000000000
       222        13  LEU       HD22           -2.5970000000        6.9130000000      -12.3700000000  PROB      14              0.0000000000
       223        13  LEU       HD23           -1.4410000000        5.7400000000      -11.6480000000  PROB      14              0.0000000000
       224        14  TRP       N               0.2530000000        3.3040000000      -10.7750000000  PROB      15              0.0000000000
       225        14  TRP       CA              1.5280000000        3.3370000000      -11.4910000000  PROB      15              0.0000000000
       226        14  TRP       C               2.4180000000        2.1190000000      -11.2310000000  PROB      15              0.0000000000
       227        14  TRP       O               2.7480000000        1.7410000000      -10.1080000000  PROB      15              0.0000000000
       228        14  TRP       CB              2.3530000000        4.6140000000      -11.1750000000  PROB      15              0.0000000000
       229        14  TRP       CG              1.6770000000        5.9070000000      -11.5830000000  PROB      15              0.0000000000
       230        14  TRP       CD1             1.7160000000        6.5570000000      -12.7890000000  PROB      15              0.0000000000
       231        14  TRP       CD2             0.8100000000        6.6790000000      -10.7360000000  PROB      15              0.0000000000
       232        14  TRP       NE1             0.8820000000        7.6560000000      -12.7680000000  PROB      15              0.0000000000
       233        14  TRP       CE2             0.3280000000        7.7580000000      -11.5090000000  PROB      15              0.0000000000
       234        14  TRP       CE3             0.4190000000        6.5040000000       -9.4160000000  PROB      15              0.0000000000
       235        14  TRP       CZ2            -0.5600000000        8.6830000000      -10.9720000000  PROB      15              0.0000000000
       236        14  TRP       CZ3            -0.4830000000        7.4310000000       -8.8750000000  PROB      15              0.0000000000
       237        14  TRP       CH2            -0.9700000000        8.5020000000       -9.6410000000  PROB      15              0.0000000000
       238        14  TRP       H               0.2970000000        3.5200000000       -9.8010000000  PROB      15              0.0000000000
       239        14  TRP       HA              1.3310000000        3.3510000000      -12.5520000000  PROB      15              0.0000000000
       240        14  TRP       HB2             2.5450000000        4.6400000000      -10.0830000000  PROB      15              0.0000000000
       241        14  TRP       HB3             3.3310000000        4.5740000000      -11.6970000000  PROB      15              0.0000000000
       242        14  TRP       HD1             2.2330000000        6.2230000000      -13.6770000000  PROB      15              0.0000000000
       243        14  TRP       HE1             0.8630000000        8.3220000000      -13.4820000000  PROB      15              0.0000000000
       244        14  TRP       HE3             0.7790000000        5.6800000000       -8.8190000000  PROB      15              0.0000000000
       245        14  TRP       HZ2            -0.9580000000        9.4770000000      -11.5790000000  PROB      15              0.0000000000
       246        14  TRP       HZ3            -0.8580000000        7.3060000000       -7.8690000000  PROB      15              0.0000000000
       247        14  TRP       HH2            -1.6720000000        9.1750000000       -9.1670000000  PROB      15              0.0000000000
