PSF EXT CMAP XPLOR

         3 !NTITLE
* GENERATED BY CHARMM-GUI (HTTP://WWW.CHARMM-GUI.ORG) V3.7 ON JUL, 07. 2026. JOB
* READ PDB, MANIPULATE STRUCTURE IF NEEDED, AND GENERATE TOPOLOGY FILE          
*  DATE:     7/ 7/26      9:10:17      CREATED BY USER: charmm-gui              

       500 !NATOM
         1 PROA     2        GLY      N        NH3     -0.300000       14.0070           0
         2 PROA     2        GLY      HT1      HC       0.330000       1.00800           0
         3 PROA     2        GLY      HT2      HC       0.330000       1.00800           0
         4 PROA     2        GLY      HT3      HC       0.330000       1.00800           0
         5 PROA     2        GLY      CA       CT2      0.130000       12.0110           0
         6 PROA     2        GLY      HA1      HB2      0.900000E-01   1.00800           0
         7 PROA     2        GLY      HA2      HB2      0.900000E-01   1.00800           0
         8 PROA     2        GLY      C        C        0.510000       12.0110           0
         9 PROA     2        GLY      O        O       -0.510000       15.9994           0
        10 PROA     3        ALA      N        NH1     -0.470000       14.0070           0
        11 PROA     3        ALA      HN       H        0.310000       1.00800           0
        12 PROA     3        ALA      CA       CT1      0.700000E-01   12.0110           0
        13 PROA     3        ALA      HA       HB1      0.900000E-01   1.00800           0
        14 PROA     3        ALA      CB       CT3     -0.270000       12.0110           0
        15 PROA     3        ALA      HB1      HA3      0.900000E-01   1.00800           0
        16 PROA     3        ALA      HB2      HA3      0.900000E-01   1.00800           0
        17 PROA     3        ALA      HB3      HA3      0.900000E-01   1.00800           0
        18 PROA     3        ALA      C        C        0.510000       12.0110           0
        19 PROA     3        ALA      O        O       -0.510000       15.9994           0
        20 PROA     4        LEU      N        NH1     -0.470000       14.0070           0
        21 PROA     4        LEU      HN       H        0.310000       1.00800           0
        22 PROA     4        LEU      CA       CT1      0.700000E-01   12.0110           0
        23 PROA     4        LEU      HA       HB1      0.900000E-01   1.00800           0
        24 PROA     4        LEU      CB       CT2     -0.180000       12.0110           0
        25 PROA     4        LEU      HB1      HA2      0.900000E-01   1.00800           0
        26 PROA     4        LEU      HB2      HA2      0.900000E-01   1.00800           0
        27 PROA     4        LEU      CG       CT1     -0.900000E-01   12.0110           0
        28 PROA     4        LEU      HG       HA1      0.900000E-01   1.00800           0
        29 PROA     4        LEU      CD1      CT3     -0.270000       12.0110           0
        30 PROA     4        LEU      HD11     HA3      0.900000E-01   1.00800           0
        31 PROA     4        LEU      HD12     HA3      0.900000E-01   1.00800           0
        32 PROA     4        LEU      HD13     HA3      0.900000E-01   1.00800           0
        33 PROA     4        LEU      CD2      CT3     -0.270000       12.0110           0
        34 PROA     4        LEU      HD21     HA3      0.900000E-01   1.00800           0
        35 PROA     4        LEU      HD22     HA3      0.900000E-01   1.00800           0
        36 PROA     4        LEU      HD23     HA3      0.900000E-01   1.00800           0
        37 PROA     4        LEU      C        C        0.510000       12.0110           0
        38 PROA     4        LEU      O        O       -0.510000       15.9994           0
        39 PROA     5        ALA      N        NH1     -0.470000       14.0070           0
        40 PROA     5        ALA      HN       H        0.310000       1.00800           0
        41 PROA     5        ALA      CA       CT1      0.700000E-01   12.0110           0
        42 PROA     5        ALA      HA       HB1      0.900000E-01   1.00800           0
        43 PROA     5        ALA      CB       CT3     -0.270000       12.0110           0
        44 PROA     5        ALA      HB1      HA3      0.900000E-01   1.00800           0
        45 PROA     5        ALA      HB2      HA3      0.900000E-01   1.00800           0
        46 PROA     5        ALA      HB3      HA3      0.900000E-01   1.00800           0
        47 PROA     5        ALA      C        C        0.510000       12.0110           0
        48 PROA     5        ALA      O        O       -0.510000       15.9994           0
        49 PROA     6        VAL      N        NH1     -0.470000       14.0070           0
        50 PROA     6        VAL      HN       H        0.310000       1.00800           0
        51 PROA     6        VAL      CA       CT1      0.700000E-01   12.0110           0
        52 PROA     6        VAL      HA       HB1      0.900000E-01   1.00800           0
        53 PROA     6        VAL      CB       CT1     -0.900000E-01   12.0110           0
        54 PROA     6        VAL      HB       HA1      0.900000E-01   1.00800           0
        55 PROA     6        VAL      CG1      CT3     -0.270000       12.0110           0
        56 PROA     6        VAL      HG11     HA3      0.900000E-01   1.00800           0
        57 PROA     6        VAL      HG12     HA3      0.900000E-01   1.00800           0
        58 PROA     6        VAL      HG13     HA3      0.900000E-01   1.00800           0
        59 PROA     6        VAL      CG2      CT3     -0.270000       12.0110           0
        60 PROA     6        VAL      HG21     HA3      0.900000E-01   1.00800           0
        61 PROA     6        VAL      HG22     HA3      0.900000E-01   1.00800           0
        62 PROA     6        VAL      HG23     HA3      0.900000E-01   1.00800           0
        63 PROA     6        VAL      C        C        0.510000       12.0110           0
        64 PROA     6        VAL      O        O       -0.510000       15.9994           0
        65 PROA     7        VAL      N        NH1     -0.470000       14.0070           0
        66 PROA     7        VAL      HN       H        0.310000       1.00800           0
        67 PROA     7        VAL      CA       CT1      0.700000E-01   12.0110           0
        68 PROA     7        VAL      HA       HB1      0.900000E-01   1.00800           0
        69 PROA     7        VAL      CB       CT1     -0.900000E-01   12.0110           0
        70 PROA     7        VAL      HB       HA1      0.900000E-01   1.00800           0
        71 PROA     7        VAL      CG1      CT3     -0.270000       12.0110           0
        72 PROA     7        VAL      HG11     HA3      0.900000E-01   1.00800           0
        73 PROA     7        VAL      HG12     HA3      0.900000E-01   1.00800           0
        74 PROA     7        VAL      HG13     HA3      0.900000E-01   1.00800           0
        75 PROA     7        VAL      CG2      CT3     -0.270000       12.0110           0
        76 PROA     7        VAL      HG21     HA3      0.900000E-01   1.00800           0
        77 PROA     7        VAL      HG22     HA3      0.900000E-01   1.00800           0
        78 PROA     7        VAL      HG23     HA3      0.900000E-01   1.00800           0
        79 PROA     7        VAL      C        C        0.510000       12.0110           0
        80 PROA     7        VAL      O        O       -0.510000       15.9994           0
        81 PROA     8        VAL      N        NH1     -0.470000       14.0070           0
        82 PROA     8        VAL      HN       H        0.310000       1.00800           0
        83 PROA     8        VAL      CA       CT1      0.700000E-01   12.0110           0
        84 PROA     8        VAL      HA       HB1      0.900000E-01   1.00800           0
        85 PROA     8        VAL      CB       CT1     -0.900000E-01   12.0110           0
        86 PROA     8        VAL      HB       HA1      0.900000E-01   1.00800           0
        87 PROA     8        VAL      CG1      CT3     -0.270000       12.0110           0
        88 PROA     8        VAL      HG11     HA3      0.900000E-01   1.00800           0
        89 PROA     8        VAL      HG12     HA3      0.900000E-01   1.00800           0
        90 PROA     8        VAL      HG13     HA3      0.900000E-01   1.00800           0
        91 PROA     8        VAL      CG2      CT3     -0.270000       12.0110           0
        92 PROA     8        VAL      HG21     HA3      0.900000E-01   1.00800           0
        93 PROA     8        VAL      HG22     HA3      0.900000E-01   1.00800           0
        94 PROA     8        VAL      HG23     HA3      0.900000E-01   1.00800           0
        95 PROA     8        VAL      C        C        0.510000       12.0110           0
        96 PROA     8        VAL      O        O       -0.510000       15.9994           0
        97 PROA     9        TRP      N        NH1     -0.470000       14.0070           0
        98 PROA     9        TRP      HN       H        0.310000       1.00800           0
        99 PROA     9        TRP      CA       CT1      0.700000E-01   12.0110           0
       100 PROA     9        TRP      HA       HB1      0.900000E-01   1.00800           0
       101 PROA     9        TRP      CB       CT2     -0.180000       12.0110           0
       102 PROA     9        TRP      HB1      HA2      0.900000E-01   1.00800           0
       103 PROA     9        TRP      HB2      HA2      0.900000E-01   1.00800           0
       104 PROA     9        TRP      CG       CY      -0.300000E-01   12.0110           0
       105 PROA     9        TRP      CD1      CA      -0.150000       12.0110           0
       106 PROA     9        TRP      HD1      HP       0.220000       1.00800           0
       107 PROA     9        TRP      NE1      NY      -0.510000       14.0070           0
       108 PROA     9        TRP      HE1      H        0.370000       1.00800           0
       109 PROA     9        TRP      CE2      CPT      0.240000       12.0110           0
       110 PROA     9        TRP      CD2      CPT      0.110000       12.0110           0
       111 PROA     9        TRP      CE3      CAI     -0.250000       12.0110           0
       112 PROA     9        TRP      HE3      HP       0.170000       1.00800           0
       113 PROA     9        TRP      CZ3      CA      -0.200000       12.0110           0
       114 PROA     9        TRP      HZ3      HP       0.140000       1.00800           0
       115 PROA     9        TRP      CZ2      CAI     -0.270000       12.0110           0
       116 PROA     9        TRP      HZ2      HP       0.160000       1.00800           0
       117 PROA     9        TRP      CH2      CA      -0.140000       12.0110           0
       118 PROA     9        TRP      HH2      HP       0.140000       1.00800           0
       119 PROA     9        TRP      C        C        0.510000       12.0110           0
       120 PROA     9        TRP      O        O       -0.510000       15.9994           0
       121 PROA     10       LEU      N        NH1     -0.470000       14.0070           0
       122 PROA     10       LEU      HN       H        0.310000       1.00800           0
       123 PROA     10       LEU      CA       CT1      0.700000E-01   12.0110           0
       124 PROA     10       LEU      HA       HB1      0.900000E-01   1.00800           0
       125 PROA     10       LEU      CB       CT2     -0.180000       12.0110           0
       126 PROA     10       LEU      HB1      HA2      0.900000E-01   1.00800           0
       127 PROA     10       LEU      HB2      HA2      0.900000E-01   1.00800           0
       128 PROA     10       LEU      CG       CT1     -0.900000E-01   12.0110           0
       129 PROA     10       LEU      HG       HA1      0.900000E-01   1.00800           0
       130 PROA     10       LEU      CD1      CT3     -0.270000       12.0110           0
       131 PROA     10       LEU      HD11     HA3      0.900000E-01   1.00800           0
       132 PROA     10       LEU      HD12     HA3      0.900000E-01   1.00800           0
       133 PROA     10       LEU      HD13     HA3      0.900000E-01   1.00800           0
       134 PROA     10       LEU      CD2      CT3     -0.270000       12.0110           0
       135 PROA     10       LEU      HD21     HA3      0.900000E-01   1.00800           0
       136 PROA     10       LEU      HD22     HA3      0.900000E-01   1.00800           0
       137 PROA     10       LEU      HD23     HA3      0.900000E-01   1.00800           0
       138 PROA     10       LEU      C        C        0.510000       12.0110           0
       139 PROA     10       LEU      O        O       -0.510000       15.9994           0
       140 PROA     11       TRP      N        NH1     -0.470000       14.0070           0
       141 PROA     11       TRP      HN       H        0.310000       1.00800           0
       142 PROA     11       TRP      CA       CT1      0.700000E-01   12.0110           0
       143 PROA     11       TRP      HA       HB1      0.900000E-01   1.00800           0
       144 PROA     11       TRP      CB       CT2     -0.180000       12.0110           0
       145 PROA     11       TRP      HB1      HA2      0.900000E-01   1.00800           0
       146 PROA     11       TRP      HB2      HA2      0.900000E-01   1.00800           0
       147 PROA     11       TRP      CG       CY      -0.300000E-01   12.0110           0
       148 PROA     11       TRP      CD1      CA      -0.150000       12.0110           0
       149 PROA     11       TRP      HD1      HP       0.220000       1.00800           0
       150 PROA     11       TRP      NE1      NY      -0.510000       14.0070           0
       151 PROA     11       TRP      HE1      H        0.370000       1.00800           0
       152 PROA     11       TRP      CE2      CPT      0.240000       12.0110           0
       153 PROA     11       TRP      CD2      CPT      0.110000       12.0110           0
       154 PROA     11       TRP      CE3      CAI     -0.250000       12.0110           0
       155 PROA     11       TRP      HE3      HP       0.170000       1.00800           0
       156 PROA     11       TRP      CZ3      CA      -0.200000       12.0110           0
       157 PROA     11       TRP      HZ3      HP       0.140000       1.00800           0
       158 PROA     11       TRP      CZ2      CAI     -0.270000       12.0110           0
       159 PROA     11       TRP      HZ2      HP       0.160000       1.00800           0
       160 PROA     11       TRP      CH2      CA      -0.140000       12.0110           0
       161 PROA     11       TRP      HH2      HP       0.140000       1.00800           0
       162 PROA     11       TRP      C        C        0.510000       12.0110           0
       163 PROA     11       TRP      O        O       -0.510000       15.9994           0
       164 PROA     12       LEU      N        NH1     -0.470000       14.0070           0
       165 PROA     12       LEU      HN       H        0.310000       1.00800           0
       166 PROA     12       LEU      CA       CT1      0.700000E-01   12.0110           0
       167 PROA     12       LEU      HA       HB1      0.900000E-01   1.00800           0
       168 PROA     12       LEU      CB       CT2     -0.180000       12.0110           0
       169 PROA     12       LEU      HB1      HA2      0.900000E-01   1.00800           0
       170 PROA     12       LEU      HB2      HA2      0.900000E-01   1.00800           0
       171 PROA     12       LEU      CG       CT1     -0.900000E-01   12.0110           0
       172 PROA     12       LEU      HG       HA1      0.900000E-01   1.00800           0
       173 PROA     12       LEU      CD1      CT3     -0.270000       12.0110           0
       174 PROA     12       LEU      HD11     HA3      0.900000E-01   1.00800           0
       175 PROA     12       LEU      HD12     HA3      0.900000E-01   1.00800           0
       176 PROA     12       LEU      HD13     HA3      0.900000E-01   1.00800           0
       177 PROA     12       LEU      CD2      CT3     -0.270000       12.0110           0
       178 PROA     12       LEU      HD21     HA3      0.900000E-01   1.00800           0
       179 PROA     12       LEU      HD22     HA3      0.900000E-01   1.00800           0
       180 PROA     12       LEU      HD23     HA3      0.900000E-01   1.00800           0
       181 PROA     12       LEU      C        C        0.510000       12.0110           0
       182 PROA     12       LEU      O        O       -0.510000       15.9994           0
       183 PROA     13       TRP      N        NH1     -0.470000       14.0070           0
       184 PROA     13       TRP      HN       H        0.310000       1.00800           0
       185 PROA     13       TRP      CA       CT1      0.700000E-01   12.0110           0
       186 PROA     13       TRP      HA       HB1      0.900000E-01   1.00800           0
       187 PROA     13       TRP      CB       CT2     -0.180000       12.0110           0
       188 PROA     13       TRP      HB1      HA2      0.900000E-01   1.00800           0
       189 PROA     13       TRP      HB2      HA2      0.900000E-01   1.00800           0
       190 PROA     13       TRP      CG       CY      -0.300000E-01   12.0110           0
       191 PROA     13       TRP      CD1      CA      -0.150000       12.0110           0
       192 PROA     13       TRP      HD1      HP       0.220000       1.00800           0
       193 PROA     13       TRP      NE1      NY      -0.510000       14.0070           0
       194 PROA     13       TRP      HE1      H        0.370000       1.00800           0
       195 PROA     13       TRP      CE2      CPT      0.240000       12.0110           0
       196 PROA     13       TRP      CD2      CPT      0.110000       12.0110           0
       197 PROA     13       TRP      CE3      CAI     -0.250000       12.0110           0
       198 PROA     13       TRP      HE3      HP       0.170000       1.00800           0
       199 PROA     13       TRP      CZ3      CA      -0.200000       12.0110           0
       200 PROA     13       TRP      HZ3      HP       0.140000       1.00800           0
       201 PROA     13       TRP      CZ2      CAI     -0.270000       12.0110           0
       202 PROA     13       TRP      HZ2      HP       0.160000       1.00800           0
       203 PROA     13       TRP      CH2      CA      -0.140000       12.0110           0
       204 PROA     13       TRP      HH2      HP       0.140000       1.00800           0
       205 PROA     13       TRP      C        C        0.510000       12.0110           0
       206 PROA     13       TRP      O        O       -0.510000       15.9994           0
       207 PROA     14       LEU      N        NH1     -0.470000       14.0070           0
       208 PROA     14       LEU      HN       H        0.310000       1.00800           0
       209 PROA     14       LEU      CA       CT1      0.700000E-01   12.0110           0
       210 PROA     14       LEU      HA       HB1      0.900000E-01   1.00800           0
       211 PROA     14       LEU      CB       CT2     -0.180000       12.0110           0
       212 PROA     14       LEU      HB1      HA2      0.900000E-01   1.00800           0
       213 PROA     14       LEU      HB2      HA2      0.900000E-01   1.00800           0
       214 PROA     14       LEU      CG       CT1     -0.900000E-01   12.0110           0
       215 PROA     14       LEU      HG       HA1      0.900000E-01   1.00800           0
       216 PROA     14       LEU      CD1      CT3     -0.270000       12.0110           0
       217 PROA     14       LEU      HD11     HA3      0.900000E-01   1.00800           0
       218 PROA     14       LEU      HD12     HA3      0.900000E-01   1.00800           0
       219 PROA     14       LEU      HD13     HA3      0.900000E-01   1.00800           0
       220 PROA     14       LEU      CD2      CT3     -0.270000       12.0110           0
       221 PROA     14       LEU      HD21     HA3      0.900000E-01   1.00800           0
       222 PROA     14       LEU      HD22     HA3      0.900000E-01   1.00800           0
       223 PROA     14       LEU      HD23     HA3      0.900000E-01   1.00800           0
       224 PROA     14       LEU      C        C        0.510000       12.0110           0
       225 PROA     14       LEU      O        O       -0.510000       15.9994           0
       226 PROA     15       TRP      N        NH1     -0.470000       14.0070           0
       227 PROA     15       TRP      HN       H        0.310000       1.00800           0
       228 PROA     15       TRP      CA       CT1      0.700000E-01   12.0110           0
       229 PROA     15       TRP      HA       HB1      0.900000E-01   1.00800           0
       230 PROA     15       TRP      CB       CT2     -0.180000       12.0110           0
       231 PROA     15       TRP      HB1      HA2      0.900000E-01   1.00800           0
       232 PROA     15       TRP      HB2      HA2      0.900000E-01   1.00800           0
       233 PROA     15       TRP      CG       CY      -0.300000E-01   12.0110           0
       234 PROA     15       TRP      CD1      CA      -0.150000       12.0110           0
       235 PROA     15       TRP      HD1      HP       0.220000       1.00800           0
       236 PROA     15       TRP      NE1      NY      -0.510000       14.0070           0
       237 PROA     15       TRP      HE1      H        0.370000       1.00800           0
       238 PROA     15       TRP      CE2      CPT      0.240000       12.0110           0
       239 PROA     15       TRP      CD2      CPT      0.110000       12.0110           0
       240 PROA     15       TRP      CE3      CAI     -0.250000       12.0110           0
       241 PROA     15       TRP      HE3      HP       0.170000       1.00800           0
       242 PROA     15       TRP      CZ3      CA      -0.200000       12.0110           0
       243 PROA     15       TRP      HZ3      HP       0.140000       1.00800           0
       244 PROA     15       TRP      CZ2      CAI     -0.270000       12.0110           0
       245 PROA     15       TRP      HZ2      HP       0.160000       1.00800           0
       246 PROA     15       TRP      CH2      CA      -0.140000       12.0110           0
       247 PROA     15       TRP      HH2      HP       0.140000       1.00800           0
       248 PROA     15       TRP      C        CC       0.340000       12.0110           0
       249 PROA     15       TRP      OT1      OC      -0.670000       15.9994           0
       250 PROA     15       TRP      OT2      OC      -0.670000       15.9994           0
       251 PROB     2        GLY      N        NH3     -0.300000       14.0070           0
       252 PROB     2        GLY      HT1      HC       0.330000       1.00800           0
       253 PROB     2        GLY      HT2      HC       0.330000       1.00800           0
       254 PROB     2        GLY      HT3      HC       0.330000       1.00800           0
       255 PROB     2        GLY      CA       CT2      0.130000       12.0110           0
       256 PROB     2        GLY      HA1      HB2      0.900000E-01   1.00800           0
       257 PROB     2        GLY      HA2      HB2      0.900000E-01   1.00800           0
       258 PROB     2        GLY      C        C        0.510000       12.0110           0
       259 PROB     2        GLY      O        O       -0.510000       15.9994           0
       260 PROB     3        ALA      N        NH1     -0.470000       14.0070           0
       261 PROB     3        ALA      HN       H        0.310000       1.00800           0
       262 PROB     3        ALA      CA       CT1      0.700000E-01   12.0110           0
       263 PROB     3        ALA      HA       HB1      0.900000E-01   1.00800           0
       264 PROB     3        ALA      CB       CT3     -0.270000       12.0110           0
       265 PROB     3        ALA      HB1      HA3      0.900000E-01   1.00800           0
       266 PROB     3        ALA      HB2      HA3      0.900000E-01   1.00800           0
       267 PROB     3        ALA      HB3      HA3      0.900000E-01   1.00800           0
       268 PROB     3        ALA      C        C        0.510000       12.0110           0
       269 PROB     3        ALA      O        O       -0.510000       15.9994           0
       270 PROB     4        LEU      N        NH1     -0.470000       14.0070           0
       271 PROB     4        LEU      HN       H        0.310000       1.00800           0
       272 PROB     4        LEU      CA       CT1      0.700000E-01   12.0110           0
       273 PROB     4        LEU      HA       HB1      0.900000E-01   1.00800           0
       274 PROB     4        LEU      CB       CT2     -0.180000       12.0110           0
       275 PROB     4        LEU      HB1      HA2      0.900000E-01   1.00800           0
       276 PROB     4        LEU      HB2      HA2      0.900000E-01   1.00800           0
       277 PROB     4        LEU      CG       CT1     -0.900000E-01   12.0110           0
       278 PROB     4        LEU      HG       HA1      0.900000E-01   1.00800           0
       279 PROB     4        LEU      CD1      CT3     -0.270000       12.0110           0
       280 PROB     4        LEU      HD11     HA3      0.900000E-01   1.00800           0
       281 PROB     4        LEU      HD12     HA3      0.900000E-01   1.00800           0
       282 PROB     4        LEU      HD13     HA3      0.900000E-01   1.00800           0
       283 PROB     4        LEU      CD2      CT3     -0.270000       12.0110           0
       284 PROB     4        LEU      HD21     HA3      0.900000E-01   1.00800           0
       285 PROB     4        LEU      HD22     HA3      0.900000E-01   1.00800           0
       286 PROB     4        LEU      HD23     HA3      0.900000E-01   1.00800           0
       287 PROB     4        LEU      C        C        0.510000       12.0110           0
       288 PROB     4        LEU      O        O       -0.510000       15.9994           0
       289 PROB     5        ALA      N        NH1     -0.470000       14.0070           0
       290 PROB     5        ALA      HN       H        0.310000       1.00800           0
       291 PROB     5        ALA      CA       CT1      0.700000E-01   12.0110           0
       292 PROB     5        ALA      HA       HB1      0.900000E-01   1.00800           0
       293 PROB     5        ALA      CB       CT3     -0.270000       12.0110           0
       294 PROB     5        ALA      HB1      HA3      0.900000E-01   1.00800           0
       295 PROB     5        ALA      HB2      HA3      0.900000E-01   1.00800           0
       296 PROB     5        ALA      HB3      HA3      0.900000E-01   1.00800           0
       297 PROB     5        ALA      C        C        0.510000       12.0110           0
       298 PROB     5        ALA      O        O       -0.510000       15.9994           0
       299 PROB     6        VAL      N        NH1     -0.470000       14.0070           0
       300 PROB     6        VAL      HN       H        0.310000       1.00800           0
       301 PROB     6        VAL      CA       CT1      0.700000E-01   12.0110           0
       302 PROB     6        VAL      HA       HB1      0.900000E-01   1.00800           0
       303 PROB     6        VAL      CB       CT1     -0.900000E-01   12.0110           0
       304 PROB     6        VAL      HB       HA1      0.900000E-01   1.00800           0
       305 PROB     6        VAL      CG1      CT3     -0.270000       12.0110           0
       306 PROB     6        VAL      HG11     HA3      0.900000E-01   1.00800           0
       307 PROB     6        VAL      HG12     HA3      0.900000E-01   1.00800           0
       308 PROB     6        VAL      HG13     HA3      0.900000E-01   1.00800           0
       309 PROB     6        VAL      CG2      CT3     -0.270000       12.0110           0
       310 PROB     6        VAL      HG21     HA3      0.900000E-01   1.00800           0
       311 PROB     6        VAL      HG22     HA3      0.900000E-01   1.00800           0
       312 PROB     6        VAL      HG23     HA3      0.900000E-01   1.00800           0
       313 PROB     6        VAL      C        C        0.510000       12.0110           0
       314 PROB     6        VAL      O        O       -0.510000       15.9994           0
       315 PROB     7        VAL      N        NH1     -0.470000       14.0070           0
       316 PROB     7        VAL      HN       H        0.310000       1.00800           0
       317 PROB     7        VAL      CA       CT1      0.700000E-01   12.0110           0
       318 PROB     7        VAL      HA       HB1      0.900000E-01   1.00800           0
       319 PROB     7        VAL      CB       CT1     -0.900000E-01   12.0110           0
       320 PROB     7        VAL      HB       HA1      0.900000E-01   1.00800           0
       321 PROB     7        VAL      CG1      CT3     -0.270000       12.0110           0
       322 PROB     7        VAL      HG11     HA3      0.900000E-01   1.00800           0
       323 PROB     7        VAL      HG12     HA3      0.900000E-01   1.00800           0
       324 PROB     7        VAL      HG13     HA3      0.900000E-01   1.00800           0
       325 PROB     7        VAL      CG2      CT3     -0.270000       12.0110           0
       326 PROB     7        VAL      HG21     HA3      0.900000E-01   1.00800           0
       327 PROB     7        VAL      HG22     HA3      0.900000E-01   1.00800           0
       328 PROB     7        VAL      HG23     HA3      0.900000E-01   1.00800           0
       329 PROB     7        VAL      C        C        0.510000       12.0110           0
       330 PROB     7        VAL      O        O       -0.510000       15.9994           0
       331 PROB     8        VAL      N        NH1     -0.470000       14.0070           0
       332 PROB     8        VAL      HN       H        0.310000       1.00800           0
       333 PROB     8        VAL      CA       CT1      0.700000E-01   12.0110           0
       334 PROB     8        VAL      HA       HB1      0.900000E-01   1.00800           0
       335 PROB     8        VAL      CB       CT1     -0.900000E-01   12.0110           0
       336 PROB     8        VAL      HB       HA1      0.900000E-01   1.00800           0
       337 PROB     8        VAL      CG1      CT3     -0.270000       12.0110           0
       338 PROB     8        VAL      HG11     HA3      0.900000E-01   1.00800           0
       339 PROB     8        VAL      HG12     HA3      0.900000E-01   1.00800           0
       340 PROB     8        VAL      HG13     HA3      0.900000E-01   1.00800           0
       341 PROB     8        VAL      CG2      CT3     -0.270000       12.0110           0
       342 PROB     8        VAL      HG21     HA3      0.900000E-01   1.00800           0
       343 PROB     8        VAL      HG22     HA3      0.900000E-01   1.00800           0
       344 PROB     8        VAL      HG23     HA3      0.900000E-01   1.00800           0
       345 PROB     8        VAL      C        C        0.510000       12.0110           0
       346 PROB     8        VAL      O        O       -0.510000       15.9994           0
       347 PROB     9        TRP      N        NH1     -0.470000       14.0070           0
       348 PROB     9        TRP      HN       H        0.310000       1.00800           0
       349 PROB     9        TRP      CA       CT1      0.700000E-01   12.0110           0
       350 PROB     9        TRP      HA       HB1      0.900000E-01   1.00800           0
       351 PROB     9        TRP      CB       CT2     -0.180000       12.0110           0
       352 PROB     9        TRP      HB1      HA2      0.900000E-01   1.00800           0
       353 PROB     9        TRP      HB2      HA2      0.900000E-01   1.00800           0
       354 PROB     9        TRP      CG       CY      -0.300000E-01   12.0110           0
       355 PROB     9        TRP      CD1      CA      -0.150000       12.0110           0
       356 PROB     9        TRP      HD1      HP       0.220000       1.00800           0
       357 PROB     9        TRP      NE1      NY      -0.510000       14.0070           0
       358 PROB     9        TRP      HE1      H        0.370000       1.00800           0
       359 PROB     9        TRP      CE2      CPT      0.240000       12.0110           0
       360 PROB     9        TRP      CD2      CPT      0.110000       12.0110           0
       361 PROB     9        TRP      CE3      CAI     -0.250000       12.0110           0
       362 PROB     9        TRP      HE3      HP       0.170000       1.00800           0
       363 PROB     9        TRP      CZ3      CA      -0.200000       12.0110           0
       364 PROB     9        TRP      HZ3      HP       0.140000       1.00800           0
       365 PROB     9        TRP      CZ2      CAI     -0.270000       12.0110           0
       366 PROB     9        TRP      HZ2      HP       0.160000       1.00800           0
       367 PROB     9        TRP      CH2      CA      -0.140000       12.0110           0
       368 PROB     9        TRP      HH2      HP       0.140000       1.00800           0
       369 PROB     9        TRP      C        C        0.510000       12.0110           0
       370 PROB     9        TRP      O        O       -0.510000       15.9994           0
       371 PROB     10       LEU      N        NH1     -0.470000       14.0070           0
       372 PROB     10       LEU      HN       H        0.310000       1.00800           0
       373 PROB     10       LEU      CA       CT1      0.700000E-01   12.0110           0
       374 PROB     10       LEU      HA       HB1      0.900000E-01   1.00800           0
       375 PROB     10       LEU      CB       CT2     -0.180000       12.0110           0
       376 PROB     10       LEU      HB1      HA2      0.900000E-01   1.00800           0
       377 PROB     10       LEU      HB2      HA2      0.900000E-01   1.00800           0
       378 PROB     10       LEU      CG       CT1     -0.900000E-01   12.0110           0
       379 PROB     10       LEU      HG       HA1      0.900000E-01   1.00800           0
       380 PROB     10       LEU      CD1      CT3     -0.270000       12.0110           0
       381 PROB     10       LEU      HD11     HA3      0.900000E-01   1.00800           0
       382 PROB     10       LEU      HD12     HA3      0.900000E-01   1.00800           0
       383 PROB     10       LEU      HD13     HA3      0.900000E-01   1.00800           0
       384 PROB     10       LEU      CD2      CT3     -0.270000       12.0110           0
       385 PROB     10       LEU      HD21     HA3      0.900000E-01   1.00800           0
       386 PROB     10       LEU      HD22     HA3      0.900000E-01   1.00800           0
       387 PROB     10       LEU      HD23     HA3      0.900000E-01   1.00800           0
       388 PROB     10       LEU      C        C        0.510000       12.0110           0
       389 PROB     10       LEU      O        O       -0.510000       15.9994           0
       390 PROB     11       TRP      N        NH1     -0.470000       14.0070           0
       391 PROB     11       TRP      HN       H        0.310000       1.00800           0
       392 PROB     11       TRP      CA       CT1      0.700000E-01   12.0110           0
       393 PROB     11       TRP      HA       HB1      0.900000E-01   1.00800           0
       394 PROB     11       TRP      CB       CT2     -0.180000       12.0110           0
       395 PROB     11       TRP      HB1      HA2      0.900000E-01   1.00800           0
       396 PROB     11       TRP      HB2      HA2      0.900000E-01   1.00800           0
       397 PROB     11       TRP      CG       CY      -0.300000E-01   12.0110           0
       398 PROB     11       TRP      CD1      CA      -0.150000       12.0110           0
       399 PROB     11       TRP      HD1      HP       0.220000       1.00800           0
       400 PROB     11       TRP      NE1      NY      -0.510000       14.0070           0
       401 PROB     11       TRP      HE1      H        0.370000       1.00800           0
       402 PROB     11       TRP      CE2      CPT      0.240000       12.0110           0
       403 PROB     11       TRP      CD2      CPT      0.110000       12.0110           0
       404 PROB     11       TRP      CE3      CAI     -0.250000       12.0110           0
       405 PROB     11       TRP      HE3      HP       0.170000       1.00800           0
       406 PROB     11       TRP      CZ3      CA      -0.200000       12.0110           0
       407 PROB     11       TRP      HZ3      HP       0.140000       1.00800           0
       408 PROB     11       TRP      CZ2      CAI     -0.270000       12.0110           0
       409 PROB     11       TRP      HZ2      HP       0.160000       1.00800           0
       410 PROB     11       TRP      CH2      CA      -0.140000       12.0110           0
       411 PROB     11       TRP      HH2      HP       0.140000       1.00800           0
       412 PROB     11       TRP      C        C        0.510000       12.0110           0
       413 PROB     11       TRP      O        O       -0.510000       15.9994           0
       414 PROB     12       LEU      N        NH1     -0.470000       14.0070           0
       415 PROB     12       LEU      HN       H        0.310000       1.00800           0
       416 PROB     12       LEU      CA       CT1      0.700000E-01   12.0110           0
       417 PROB     12       LEU      HA       HB1      0.900000E-01   1.00800           0
       418 PROB     12       LEU      CB       CT2     -0.180000       12.0110           0
       419 PROB     12       LEU      HB1      HA2      0.900000E-01   1.00800           0
       420 PROB     12       LEU      HB2      HA2      0.900000E-01   1.00800           0
       421 PROB     12       LEU      CG       CT1     -0.900000E-01   12.0110           0
       422 PROB     12       LEU      HG       HA1      0.900000E-01   1.00800           0
       423 PROB     12       LEU      CD1      CT3     -0.270000       12.0110           0
       424 PROB     12       LEU      HD11     HA3      0.900000E-01   1.00800           0
       425 PROB     12       LEU      HD12     HA3      0.900000E-01   1.00800           0
       426 PROB     12       LEU      HD13     HA3      0.900000E-01   1.00800           0
       427 PROB     12       LEU      CD2      CT3     -0.270000       12.0110           0
       428 PROB     12       LEU      HD21     HA3      0.900000E-01   1.00800           0
       429 PROB     12       LEU      HD22     HA3      0.900000E-01   1.00800           0
       430 PROB     12       LEU      HD23     HA3      0.900000E-01   1.00800           0
       431 PROB     12       LEU      C        C        0.510000       12.0110           0
       432 PROB     12       LEU      O        O       -0.510000       15.9994           0
       433 PROB     13       TRP      N        NH1     -0.470000       14.0070           0
       434 PROB     13       TRP      HN       H        0.310000       1.00800           0
       435 PROB     13       TRP      CA       CT1      0.700000E-01   12.0110           0
       436 PROB     13       TRP      HA       HB1      0.900000E-01   1.00800           0
       437 PROB     13       TRP      CB       CT2     -0.180000       12.0110           0
       438 PROB     13       TRP      HB1      HA2      0.900000E-01   1.00800           0
       439 PROB     13       TRP      HB2      HA2      0.900000E-01   1.00800           0
       440 PROB     13       TRP      CG       CY      -0.300000E-01   12.0110           0
       441 PROB     13       TRP      CD1      CA      -0.150000       12.0110           0
       442 PROB     13       TRP      HD1      HP       0.220000       1.00800           0
       443 PROB     13       TRP      NE1      NY      -0.510000       14.0070           0
       444 PROB     13       TRP      HE1      H        0.370000       1.00800           0
       445 PROB     13       TRP      CE2      CPT      0.240000       12.0110           0
       446 PROB     13       TRP      CD2      CPT      0.110000       12.0110           0
       447 PROB     13       TRP      CE3      CAI     -0.250000       12.0110           0
       448 PROB     13       TRP      HE3      HP       0.170000       1.00800           0
       449 PROB     13       TRP      CZ3      CA      -0.200000       12.0110           0
       450 PROB     13       TRP      HZ3      HP       0.140000       1.00800           0
       451 PROB     13       TRP      CZ2      CAI     -0.270000       12.0110           0
       452 PROB     13       TRP      HZ2      HP       0.160000       1.00800           0
       453 PROB     13       TRP      CH2      CA      -0.140000       12.0110           0
       454 PROB     13       TRP      HH2      HP       0.140000       1.00800           0
       455 PROB     13       TRP      C        C        0.510000       12.0110           0
       456 PROB     13       TRP      O        O       -0.510000       15.9994           0
       457 PROB     14       LEU      N        NH1     -0.470000       14.0070           0
       458 PROB     14       LEU      HN       H        0.310000       1.00800           0
       459 PROB     14       LEU      CA       CT1      0.700000E-01   12.0110           0
       460 PROB     14       LEU      HA       HB1      0.900000E-01   1.00800           0
       461 PROB     14       LEU      CB       CT2     -0.180000       12.0110           0
       462 PROB     14       LEU      HB1      HA2      0.900000E-01   1.00800           0
       463 PROB     14       LEU      HB2      HA2      0.900000E-01   1.00800           0
       464 PROB     14       LEU      CG       CT1     -0.900000E-01   12.0110           0
       465 PROB     14       LEU      HG       HA1      0.900000E-01   1.00800           0
       466 PROB     14       LEU      CD1      CT3     -0.270000       12.0110           0
       467 PROB     14       LEU      HD11     HA3      0.900000E-01   1.00800           0
       468 PROB     14       LEU      HD12     HA3      0.900000E-01   1.00800           0
       469 PROB     14       LEU      HD13     HA3      0.900000E-01   1.00800           0
       470 PROB     14       LEU      CD2      CT3     -0.270000       12.0110           0
       471 PROB     14       LEU      HD21     HA3      0.900000E-01   1.00800           0
       472 PROB     14       LEU      HD22     HA3      0.900000E-01   1.00800           0
       473 PROB     14       LEU      HD23     HA3      0.900000E-01   1.00800           0
       474 PROB     14       LEU      C        C        0.510000       12.0110           0
       475 PROB     14       LEU      O        O       -0.510000       15.9994           0
       476 PROB     15       TRP      N        NH1     -0.470000       14.0070           0
       477 PROB     15       TRP      HN       H        0.310000       1.00800           0
       478 PROB     15       TRP      CA       CT1      0.700000E-01   12.0110           0
       479 PROB     15       TRP      HA       HB1      0.900000E-01   1.00800           0
       480 PROB     15       TRP      CB       CT2     -0.180000       12.0110           0
       481 PROB     15       TRP      HB1      HA2      0.900000E-01   1.00800           0
       482 PROB     15       TRP      HB2      HA2      0.900000E-01   1.00800           0
       483 PROB     15       TRP      CG       CY      -0.300000E-01   12.0110           0
       484 PROB     15       TRP      CD1      CA      -0.150000       12.0110           0
       485 PROB     15       TRP      HD1      HP       0.220000       1.00800           0
       486 PROB     15       TRP      NE1      NY      -0.510000       14.0070           0
       487 PROB     15       TRP      HE1      H        0.370000       1.00800           0
       488 PROB     15       TRP      CE2      CPT      0.240000       12.0110           0
       489 PROB     15       TRP      CD2      CPT      0.110000       12.0110           0
       490 PROB     15       TRP      CE3      CAI     -0.250000       12.0110           0
       491 PROB     15       TRP      HE3      HP       0.170000       1.00800           0
       492 PROB     15       TRP      CZ3      CA      -0.200000       12.0110           0
       493 PROB     15       TRP      HZ3      HP       0.140000       1.00800           0
       494 PROB     15       TRP      CZ2      CAI     -0.270000       12.0110           0
       495 PROB     15       TRP      HZ2      HP       0.160000       1.00800           0
       496 PROB     15       TRP      CH2      CA      -0.140000       12.0110           0
       497 PROB     15       TRP      HH2      HP       0.140000       1.00800           0
       498 PROB     15       TRP      C        CC       0.340000       12.0110           0
       499 PROB     15       TRP      OT1      OC      -0.670000       15.9994           0
       500 PROB     15       TRP      OT2      OC      -0.670000       15.9994           0

       514 !NBOND: bonds
         2         1         3         1         4         1         1         5
         8         5         8        10         5         6         5         7
         9         8        14        12        10        11        10        12
        18        12        18        20        12        13        14        15
        14        16        14        17        19        18        24        22
        27        24        29        27        33        27        20        21
        20        22        37        22        37        39        22        23
        24        25        24        26        27        28        29        30
        29        31        29        32        33        34        33        35
        33        36        38        37        43        41        39        40
        39        41        47        41        47        49        41        42
        43        44        43        45        43        46        48        47
        53        51        55        53        59        53        49        50
        49        51        63        51        63        65        51        52
        53        54        55        56        55        57        55        58
        59        60        59        61        59        62        64        63
        69        67        71        69        75        69        65        66
        65        67        79        67        79        81        67        68
        69        70        71        72        71        73        71        74
        75        76        75        77        75        78        80        79
        85        83        87        85        91        85        81        82
        81        83        95        83        95        97        83        84
        85        86        87        88        87        89        87        90
        91        92        91        93        91        94        96        95
       101        99       104       101       110       104       107       105
       115       109        97        98        97        99       119        99
       119       121       113       117       110       111       107       109
        99       100       101       102       101       103       105       106
       107       108       111       112       115       116       113       114
       117       118       120       119       105       104       109       110
       113       111       117       115       125       123       128       125
       130       128       134       128       121       122       121       123
       138       123       138       140       123       124       125       126
       125       127       128       129       130       131       130       132
       130       133       134       135       134       136       134       137
       139       138       144       142       147       144       153       147
       150       148       158       152       140       141       140       142
       162       142       162       164       156       160       153       154
       150       152       142       143       144       145       144       146
       148       149       150       151       154       155       158       159
       156       157       160       161       163       162       148       147
       152       153       156       154       160       158       168       166
       171       168       173       171       177       171       164       165
       164       166       181       166       181       183       166       167
       168       169       168       170       171       172       173       174
       173       175       173       176       177       178       177       179
       177       180       182       181       187       185       190       187
       196       190       193       191       201       195       183       184
       183       185       205       185       205       207       199       203
       196       197       193       195       185       186       187       188
       187       189       191       192       193       194       197       198
       201       202       199       200       203       204       206       205
       191       190       195       196       199       197       203       201
       211       209       214       211       216       214       220       214
       207       208       207       209       224       209       224       226
       209       210       211       212       211       213       214       215
       216       217       216       218       216       219       220       221
       220       222       220       223       225       224       230       228
       233       230       239       233       236       234       244       238
       226       227       226       228       248       228       242       246
       239       240       236       238       228       229       230       231
       230       232       234       235       236       237       240       241
       244       245       242       243       246       247       234       233
       238       239       242       240       246       244       248       250
       248       249       252       251       253       251       254       251
       251       255       258       255       258       260       255       256
       255       257       259       258       264       262       260       261
       260       262       268       262       268       270       262       263
       264       265       264       266       264       267       269       268
       274       272       277       274       279       277       283       277
       270       271       270       272       287       272       287       289
       272       273       274       275       274       276       277       278
       279       280       279       281       279       282       283       284
       283       285       283       286       288       287       293       291
       289       290       289       291       297       291       297       299
       291       292       293       294       293       295       293       296
       298       297       303       301       305       303       309       303
       299       300       299       301       313       301       313       315
       301       302       303       304       305       306       305       307
       305       308       309       310       309       311       309       312
       314       313       319       317       321       319       325       319
       315       316       315       317       329       317       329       331
       317       318       319       320       321       322       321       323
       321       324       325       326       325       327       325       328
       330       329       335       333       337       335       341       335
       331       332       331       333       345       333       345       347
       333       334       335       336       337       338       337       339
       337       340       341       342       341       343       341       344
       346       345       351       349       354       351       360       354
       357       355       365       359       347       348       347       349
       369       349       369       371       363       367       360       361
       357       359       349       350       351       352       351       353
       355       356       357       358       361       362       365       366
       363       364       367       368       370       369       355       354
       359       360       363       361       367       365       375       373
       378       375       380       378       384       378       371       372
       371       373       388       373       388       390       373       374
       375       376       375       377       378       379       380       381
       380       382       380       383       384       385       384       386
       384       387       389       388       394       392       397       394
       403       397       400       398       408       402       390       391
       390       392       412       392       412       414       406       410
       403       404       400       402       392       393       394       395
       394       396       398       399       400       401       404       405
       408       409       406       407       410       411       413       412
       398       397       402       403       406       404       410       408
       418       416       421       418       423       421       427       421
       414       415       414       416       431       416       431       433
       416       417       418       419       418       420       421       422
       423       424       423       425       423       426       427       428
       427       429       427       430       432       431       437       435
       440       437       446       440       443       441       451       445
       433       434       433       435       455       435       455       457
       449       453       446       447       443       445       435       436
       437       438       437       439       441       442       443       444
       447       448       451       452       449       450       453       454
       456       455       441       440       445       446       449       447
       453       451       461       459       464       461       466       464
       470       464       457       458       457       459       474       459
       474       476       459       460       461       462       461       463
       464       465       466       467       466       468       466       469
       470       471       470       472       470       473       475       474
       480       478       483       480       489       483       486       484
       494       488       476       477       476       478       498       478
       492       496       489       490       486       488       478       479
       480       481       480       482       484       485       486       487
       490       491       494       495       492       493       496       497
       484       483       488       489       492       490       496       494
       498       500       498       499

       930 !NTHETA: angles
         2         1         3         2         1         4         2         1         5
         3         1         4         3         1         5         4         1         5
         1         5         6         1         5         7         1         5         8
         6         5         7         6         5         8         7         5         8
         5         8         9         5         8        10         9         8        10
         8        10        11         8        10        12        11        10        12
        10        12        13        10        12        14        10        12        18
        13        12        14        13        12        18        14        12        18
        12        14        15        12        14        16        12        14        17
        15        14        16        15        14        17        16        14        17
        12        18        19        12        18        20        19        18        20
        18        20        21        18        20        22        21        20        22
        20        22        23        20        22        24        20        22        37
        23        22        24        23        22        37        24        22        37
        22        24        25        22        24        26        22        24        27
        25        24        26        25        24        27        26        24        27
        24        27        28        24        27        29        24        27        33
        28        27        29        28        27        33        29        27        33
        27        29        30        27        29        31        27        29        32
        30        29        31        30        29        32        31        29        32
        27        33        34        27        33        35        27        33        36
        34        33        35        34        33        36        35        33        36
        22        37        38        22        37        39        38        37        39
        37        39        40        37        39        41        40        39        41
        39        41        42        39        41        43        39        41        47
        42        41        43        42        41        47        43        41        47
        41        43        44        41        43        45        41        43        46
        44        43        45        44        43        46        45        43        46
        41        47        48        41        47        49        48        47        49
        47        49        50        47        49        51        50        49        51
        49        51        52        49        51        53        49        51        63
        52        51        53        52        51        63        53        51        63
        51        53        54        51        53        55        51        53        59
        54        53        55        54        53        59        55        53        59
        53        55        56        53        55        57        53        55        58
        56        55        57        56        55        58        57        55        58
        53        59        60        53        59        61        53        59        62
        60        59        61        60        59        62        61        59        62
        51        63        64        51        63        65        64        63        65
        63        65        66        63        65        67        66        65        67
        65        67        68        65        67        69        65        67        79
        68        67        69        68        67        79        69        67        79
        67        69        70        67        69        71        67        69        75
        70        69        71        70        69        75        71        69        75
        69        71        72        69        71        73        69        71        74
        72        71        73        72        71        74        73        71        74
        69        75        76        69        75        77        69        75        78
        76        75        77        76        75        78        77        75        78
        67        79        80        67        79        81        80        79        81
        79        81        82        79        81        83        82        81        83
        81        83        84        81        83        85        81        83        95
        84        83        85        84        83        95        85        83        95
        83        85        86        83        85        87        83        85        91
        86        85        87        86        85        91        87        85        91
        85        87        88        85        87        89        85        87        90
        88        87        89        88        87        90        89        87        90
        85        91        92        85        91        93        85        91        94
        92        91        93        92        91        94        93        91        94
        83        95        96        83        95        97        96        95        97
        95        97        98        95        97        99        98        97        99
        97        99       100        97        99       101        97        99       119
       100        99       101       100        99       119       101        99       119
        99       101       102        99       101       103        99       101       104
       102       101       103       102       101       104       103       101       104
       101       104       105       101       104       110       105       104       110
       104       105       106       104       105       107       106       105       107
       105       107       108       105       107       109       108       107       109
       107       109       110       107       109       115       110       109       115
       104       110       109       104       110       111       109       110       111
       110       111       112       110       111       113       112       111       113
       111       113       114       111       113       117       114       113       117
       109       115       116       109       115       117       116       115       117
       113       117       115       113       117       118       115       117       118
        99       119       120        99       119       121       120       119       121
       119       121       122       119       121       123       122       121       123
       121       123       124       121       123       125       121       123       138
       124       123       125       124       123       138       125       123       138
       123       125       126       123       125       127       123       125       128
       126       125       127       126       125       128       127       125       128
       125       128       129       125       128       130       125       128       134
       129       128       130       129       128       134       130       128       134
       128       130       131       128       130       132       128       130       133
       131       130       132       131       130       133       132       130       133
       128       134       135       128       134       136       128       134       137
       135       134       136       135       134       137       136       134       137
       123       138       139       123       138       140       139       138       140
       138       140       141       138       140       142       141       140       142
       140       142       143       140       142       144       140       142       162
       143       142       144       143       142       162       144       142       162
       142       144       145       142       144       146       142       144       147
       145       144       146       145       144       147       146       144       147
       144       147       148       144       147       153       148       147       153
       147       148       149       147       148       150       149       148       150
       148       150       151       148       150       152       151       150       152
       150       152       153       150       152       158       153       152       158
       147       153       152       147       153       154       152       153       154
       153       154       155       153       154       156       155       154       156
       154       156       157       154       156       160       157       156       160
       152       158       159       152       158       160       159       158       160
       156       160       158       156       160       161       158       160       161
       142       162       163       142       162       164       163       162       164
       162       164       165       162       164       166       165       164       166
       164       166       167       164       166       168       164       166       181
       167       166       168       167       166       181       168       166       181
       166       168       169       166       168       170       166       168       171
       169       168       170       169       168       171       170       168       171
       168       171       172       168       171       173       168       171       177
       172       171       173       172       171       177       173       171       177
       171       173       174       171       173       175       171       173       176
       174       173       175       174       173       176       175       173       176
       171       177       178       171       177       179       171       177       180
       178       177       179       178       177       180       179       177       180
       166       181       182       166       181       183       182       181       183
       181       183       184       181       183       185       184       183       185
       183       185       186       183       185       187       183       185       205
       186       185       187       186       185       205       187       185       205
       185       187       188       185       187       189       185       187       190
       188       187       189       188       187       190       189       187       190
       187       190       191       187       190       196       191       190       196
       190       191       192       190       191       193       192       191       193
       191       193       194       191       193       195       194       193       195
       193       195       196       193       195       201       196       195       201
       190       196       195       190       196       197       195       196       197
       196       197       198       196       197       199       198       197       199
       197       199       200       197       199       203       200       199       203
       195       201       202       195       201       203       202       201       203
       199       203       201       199       203       204       201       203       204
       185       205       206       185       205       207       206       205       207
       205       207       208       205       207       209       208       207       209
       207       209       210       207       209       211       207       209       224
       210       209       211       210       209       224       211       209       224
       209       211       212       209       211       213       209       211       214
       212       211       213       212       211       214       213       211       214
       211       214       215       211       214       216       211       214       220
       215       214       216       215       214       220       216       214       220
       214       216       217       214       216       218       214       216       219
       217       216       218       217       216       219       218       216       219
       214       220       221       214       220       222       214       220       223
       221       220       222       221       220       223       222       220       223
       209       224       225       209       224       226       225       224       226
       224       226       227       224       226       228       227       226       228
       226       228       229       226       228       230       226       228       248
       229       228       230       229       228       248       230       228       248
       228       230       231       228       230       232       228       230       233
       231       230       232       231       230       233       232       230       233
       230       233       234       230       233       239       234       233       239
       233       234       235       233       234       236       235       234       236
       234       236       237       234       236       238       237       236       238
       236       238       239       236       238       244       239       238       244
       233       239       238       233       239       240       238       239       240
       239       240       241       239       240       242       241       240       242
       240       242       243       240       242       246       243       242       246
       238       244       245       238       244       246       245       244       246
       242       246       244       242       246       247       244       246       247
       228       248       249       228       248       250       249       248       250
       252       251       253       252       251       254       252       251       255
       253       251       254       253       251       255       254       251       255
       251       255       256       251       255       257       251       255       258
       256       255       257       256       255       258       257       255       258
       255       258       259       255       258       260       259       258       260
       258       260       261       258       260       262       261       260       262
       260       262       263       260       262       264       260       262       268
       263       262       264       263       262       268       264       262       268
       262       264       265       262       264       266       262       264       267
       265       264       266       265       264       267       266       264       267
       262       268       269       262       268       270       269       268       270
       268       270       271       268       270       272       271       270       272
       270       272       273       270       272       274       270       272       287
       273       272       274       273       272       287       274       272       287
       272       274       275       272       274       276       272       274       277
       275       274       276       275       274       277       276       274       277
       274       277       278       274       277       279       274       277       283
       278       277       279       278       277       283       279       277       283
       277       279       280       277       279       281       277       279       282
       280       279       281       280       279       282       281       279       282
       277       283       284       277       283       285       277       283       286
       284       283       285       284       283       286       285       283       286
       272       287       288       272       287       289       288       287       289
       287       289       290       287       289       291       290       289       291
       289       291       292       289       291       293       289       291       297
       292       291       293       292       291       297       293       291       297
       291       293       294       291       293       295       291       293       296
       294       293       295       294       293       296       295       293       296
       291       297       298       291       297       299       298       297       299
       297       299       300       297       299       301       300       299       301
       299       301       302       299       301       303       299       301       313
       302       301       303       302       301       313       303       301       313
       301       303       304       301       303       305       301       303       309
       304       303       305       304       303       309       305       303       309
       303       305       306       303       305       307       303       305       308
       306       305       307       306       305       308       307       305       308
       303       309       310       303       309       311       303       309       312
       310       309       311       310       309       312       311       309       312
       301       313       314       301       313       315       314       313       315
       313       315       316       313       315       317       316       315       317
       315       317       318       315       317       319       315       317       329
       318       317       319       318       317       329       319       317       329
       317       319       320       317       319       321       317       319       325
       320       319       321       320       319       325       321       319       325
       319       321       322       319       321       323       319       321       324
       322       321       323       322       321       324       323       321       324
       319       325       326       319       325       327       319       325       328
       326       325       327       326       325       328       327       325       328
       317       329       330       317       329       331       330       329       331
       329       331       332       329       331       333       332       331       333
       331       333       334       331       333       335       331       333       345
       334       333       335       334       333       345       335       333       345
       333       335       336       333       335       337       333       335       341
       336       335       337       336       335       341       337       335       341
       335       337       338       335       337       339       335       337       340
       338       337       339       338       337       340       339       337       340
       335       341       342       335       341       343       335       341       344
       342       341       343       342       341       344       343       341       344
       333       345       346       333       345       347       346       345       347
       345       347       348       345       347       349       348       347       349
       347       349       350       347       349       351       347       349       369
       350       349       351       350       349       369       351       349       369
       349       351       352       349       351       353       349       351       354
       352       351       353       352       351       354       353       351       354
       351       354       355       351       354       360       355       354       360
       354       355       356       354       355       357       356       355       357
       355       357       358       355       357       359       358       357       359
       357       359       360       357       359       365       360       359       365
       354       360       359       354       360       361       359       360       361
       360       361       362       360       361       363       362       361       363
       361       363       364       361       363       367       364       363       367
       359       365       366       359       365       367       366       365       367
       363       367       365       363       367       368       365       367       368
       349       369       370       349       369       371       370       369       371
       369       371       372       369       371       373       372       371       373
       371       373       374       371       373       375       371       373       388
       374       373       375       374       373       388       375       373       388
       373       375       376       373       375       377       373       375       378
       376       375       377       376       375       378       377       375       378
       375       378       379       375       378       380       375       378       384
       379       378       380       379       378       384       380       378       384
       378       380       381       378       380       382       378       380       383
       381       380       382       381       380       383       382       380       383
       378       384       385       378       384       386       378       384       387
       385       384       386       385       384       387       386       384       387
       373       388       389       373       388       390       389       388       390
       388       390       391       388       390       392       391       390       392
       390       392       393       390       392       394       390       392       412
       393       392       394       393       392       412       394       392       412
       392       394       395       392       394       396       392       394       397
       395       394       396       395       394       397       396       394       397
       394       397       398       394       397       403       398       397       403
       397       398       399       397       398       400       399       398       400
       398       400       401       398       400       402       401       400       402
       400       402       403       400       402       408       403       402       408
       397       403       402       397       403       404       402       403       404
       403       404       405       403       404       406       405       404       406
       404       406       407       404       406       410       407       406       410
       402       408       409       402       408       410       409       408       410
       406       410       408       406       410       411       408       410       411
       392       412       413       392       412       414       413       412       414
       412       414       415       412       414       416       415       414       416
       414       416       417       414       416       418       414       416       431
       417       416       418       417       416       431       418       416       431
       416       418       419       416       418       420       416       418       421
       419       418       420       419       418       421       420       418       421
       418       421       422       418       421       423       418       421       427
       422       421       423       422       421       427       423       421       427
       421       423       424       421       423       425       421       423       426
       424       423       425       424       423       426       425       423       426
       421       427       428       421       427       429       421       427       430
       428       427       429       428       427       430       429       427       430
       416       431       432       416       431       433       432       431       433
       431       433       434       431       433       435       434       433       435
       433       435       436       433       435       437       433       435       455
       436       435       437       436       435       455       437       435       455
       435       437       438       435       437       439       435       437       440
       438       437       439       438       437       440       439       437       440
       437       440       441       437       440       446       441       440       446
       440       441       442       440       441       443       442       441       443
       441       443       444       441       443       445       444       443       445
       443       445       446       443       445       451       446       445       451
       440       446       445       440       446       447       445       446       447
       446       447       448       446       447       449       448       447       449
       447       449       450       447       449       453       450       449       453
       445       451       452       445       451       453       452       451       453
       449       453       451       449       453       454       451       453       454
       435       455       456       435       455       457       456       455       457
       455       457       458       455       457       459       458       457       459
       457       459       460       457       459       461       457       459       474
       460       459       461       460       459       474       461       459       474
       459       461       462       459       461       463       459       461       464
       462       461       463       462       461       464       463       461       464
       461       464       465       461       464       466       461       464       470
       465       464       466       465       464       470       466       464       470
       464       466       467       464       466       468       464       466       469
       467       466       468       467       466       469       468       466       469
       464       470       471       464       470       472       464       470       473
       471       470       472       471       470       473       472       470       473
       459       474       475       459       474       476       475       474       476
       474       476       477       474       476       478       477       476       478
       476       478       479       476       478       480       476       478       498
       479       478       480       479       478       498       480       478       498
       478       480       481       478       480       482       478       480       483
       481       480       482       481       480       483       482       480       483
       480       483       484       480       483       489       484       483       489
       483       484       485       483       484       486       485       484       486
       484       486       487       484       486       488       487       486       488
       486       488       489       486       488       494       489       488       494
       483       489       488       483       489       490       488       489       490
       489       490       491       489       490       492       491       490       492
       490       492       493       490       492       496       493       492       496
       488       494       495       488       494       496       495       494       496
       492       496       494       492       496       497       494       496       497
       478       498       499       478       498       500       499       498       500

      1372 !NPHI: dihedrals
         1         5         8         9         1         5         8        10
         2         1         5         6         2         1         5         7
         2         1         5         8         3         1         5         6
         3         1         5         7         3         1         5         8
         4         1         5         6         4         1         5         7
         4         1         5         8         5         8        10        11
         5         8        10        12         6         5         8         9
         6         5         8        10         7         5         8         9
         7         5         8        10         8        10        12        13
         8        10        12        14         8        10        12        18
         9         8        10        11         9         8        10        12
        10        12        14        15        10        12        14        16
        10        12        14        17        10        12        18        19
        10        12        18        20        11        10        12        13
        11        10        12        14        11        10        12        18
        12        18        20        21        12        18        20        22
        13        12        14        15        13        12        14        16
        13        12        14        17        13        12        18        19
        13        12        18        20        14        12        18        19
        14        12        18        20        15        14        12        18
        16        14        12        18        17        14        12        18
        18        20        22        23        18        20        22        24
        18        20        22        37        19        18        20        21
        19        18        20        22        20        22        24        25
        20        22        24        26        20        22        24        27
        20        22        37        38        20        22        37        39
        21        20        22        23        21        20        22        24
        21        20        22        37        22        24        27        28
        22        24        27        29        22        24        27        33
        22        37        39        40        22        37        39        41
        23        22        24        25        23        22        24        26
        23        22        24        27        23        22        37        38
        23        22        37        39        24        22        37        38
        24        22        37        39        24        27        29        30
        24        27        29        31        24        27        29        32
        24        27        33        34        24        27        33        35
        24        27        33        36        25        24        22        37
        25        24        27        28        25        24        27        29
        25        24        27        33        26        24        22        37
        26        24        27        28        26        24        27        29
        26        24        27        33        27        24        22        37
        28        27        29        30        28        27        29        31
        28        27        29        32        28        27        33        34
        28        27        33        35        28        27        33        36
        29        27        33        34        29        27        33        35
        29        27        33        36        30        29        27        33
        31        29        27        33        32        29        27        33
        37        39        41        42        37        39        41        43
        37        39        41        47        38        37        39        40
        38        37        39        41        39        41        43        44
        39        41        43        45        39        41        43        46
        39        41        47        48        39        41        47        49
        40        39        41        42        40        39        41        43
        40        39        41        47        41        47        49        50
        41        47        49        51        42        41        43        44
        42        41        43        45        42        41        43        46
        42        41        47        48        42        41        47        49
        43        41        47        48        43        41        47        49
        44        43        41        47        45        43        41        47
        46        43        41        47        47        49        51        52
        47        49        51        53        47        49        51        63
        48        47        49        50        48        47        49        51
        49        51        53        54        49        51        53        55
        49        51        53        59        49        51        63        64
        49        51        63        65        50        49        51        52
        50        49        51        53        50        49        51        63
        51        53        55        56        51        53        55        57
        51        53        55        58        51        53        59        60
        51        53        59        61        51        53        59        62
        51        63        65        66        51        63        65        67
        52        51        53        54        52        51        53        55
        52        51        53        59        52        51        63        64
        52        51        63        65        53        51        63        64
        53        51        63        65        54        53        51        63
        54        53        55        56        54        53        55        57
        54        53        55        58        54        53        59        60
        54        53        59        61        54        53        59        62
        55        53        51        63        55        53        59        60
        55        53        59        61        55        53        59        62
        56        55        53        59        57        55        53        59
        58        55        53        59        59        53        51        63
        63        65        67        68        63        65        67        69
        63        65        67        79        64        63        65        66
        64        63        65        67        65        67        69        70
        65        67        69        71        65        67        69        75
        65        67        79        80        65        67        79        81
        66        65        67        68        66        65        67        69
        66        65        67        79        67        69        71        72
        67        69        71        73        67        69        71        74
        67        69        75        76        67        69        75        77
        67        69        75        78        67        79        81        82
        67        79        81        83        68        67        69        70
        68        67        69        71        68        67        69        75
        68        67        79        80        68        67        79        81
        69        67        79        80        69        67        79        81
        70        69        67        79        70        69        71        72
        70        69        71        73        70        69        71        74
        70        69        75        76        70        69        75        77
        70        69        75        78        71        69        67        79
        71        69        75        76        71        69        75        77
        71        69        75        78        72        71        69        75
        73        71        69        75        74        71        69        75
        75        69        67        79        79        81        83        84
        79        81        83        85        79        81        83        95
        80        79        81        82        80        79        81        83
        81        83        85        86        81        83        85        87
        81        83        85        91        81        83        95        96
        81        83        95        97        82        81        83        84
        82        81        83        85        82        81        83        95
        83        85        87        88        83        85        87        89
        83        85        87        90        83        85        91        92
        83        85        91        93        83        85        91        94
        83        95        97        98        83        95        97        99
        84        83        85        86        84        83        85        87
        84        83        85        91        84        83        95        96
        84        83        95        97        85        83        95        96
        85        83        95        97        86        85        83        95
        86        85        87        88        86        85        87        89
        86        85        87        90        86        85        91        92
        86        85        91        93        86        85        91        94
        87        85        83        95        87        85        91        92
        87        85        91        93        87        85        91        94
        88        87        85        91        89        87        85        91
        90        87        85        91        91        85        83        95
        95        97        99       100        95        97        99       101
        95        97        99       119        96        95        97        98
        96        95        97        99        97        99       101       102
        97        99       101       103        97        99       101       104
        97        99       119       120        97        99       119       121
        98        97        99       100        98        97        99       101
        98        97        99       119        99       101       104       105
        99       101       104       110        99       119       121       122
        99       119       121       123       100        99       101       102
       100        99       101       103       100        99       101       104
       100        99       119       120       100        99       119       121
       101        99       119       120       101        99       119       121
       101       104       105       106       101       104       105       107
       101       104       110       109       101       104       110       111
       102       101        99       119       102       101       104       105
       102       101       104       110       103       101        99       119
       103       101       104       105       103       101       104       110
       104       101        99       119       104       105       107       108
       104       105       107       109       104       110       109       107
       104       110       109       115       104       110       111       112
       104       110       111       113       105       104       110       109
       105       104       110       111       105       107       109       110
       105       107       109       115       106       105       104       110
       106       105       107       108       106       105       107       109
       107       105       104       110       107       109       110       111
       107       109       115       116       107       109       115       117
       108       107       109       110       108       107       109       115
       109       110       111       112       109       110       111       113
       109       115       117       113       109       115       117       118
       110       109       115       116       110       109       115       117
       110       111       113       114       110       111       113       117
       111       110       109       115       111       113       117       115
       111       113       117       118       112       111       113       114
       112       111       113       117       113       117       115       116
       114       113       117       115       114       113       117       118
       116       115       117       118       119       121       123       124
       119       121       123       125       119       121       123       138
       120       119       121       122       120       119       121       123
       121       123       125       126       121       123       125       127
       121       123       125       128       121       123       138       139
       121       123       138       140       122       121       123       124
       122       121       123       125       122       121       123       138
       123       125       128       129       123       125       128       130
       123       125       128       134       123       138       140       141
       123       138       140       142       124       123       125       126
       124       123       125       127       124       123       125       128
       124       123       138       139       124       123       138       140
       125       123       138       139       125       123       138       140
       125       128       130       131       125       128       130       132
       125       128       130       133       125       128       134       135
       125       128       134       136       125       128       134       137
       126       125       123       138       126       125       128       129
       126       125       128       130       126       125       128       134
       127       125       123       138       127       125       128       129
       127       125       128       130       127       125       128       134
       128       125       123       138       129       128       130       131
       129       128       130       132       129       128       130       133
       129       128       134       135       129       128       134       136
       129       128       134       137       130       128       134       135
       130       128       134       136       130       128       134       137
       131       130       128       134       132       130       128       134
       133       130       128       134       138       140       142       143
       138       140       142       144       138       140       142       162
       139       138       140       141       139       138       140       142
       140       142       144       145       140       142       144       146
       140       142       144       147       140       142       162       163
       140       142       162       164       141       140       142       143
       141       140       142       144       141       140       142       162
       142       144       147       148       142       144       147       153
       142       162       164       165       142       162       164       166
       143       142       144       145       143       142       144       146
       143       142       144       147       143       142       162       163
       143       142       162       164       144       142       162       163
       144       142       162       164       144       147       148       149
       144       147       148       150       144       147       153       152
       144       147       153       154       145       144       142       162
       145       144       147       148       145       144       147       153
       146       144       142       162       146       144       147       148
       146       144       147       153       147       144       142       162
       147       148       150       151       147       148       150       152
       147       153       152       150       147       153       152       158
       147       153       154       155       147       153       154       156
       148       147       153       152       148       147       153       154
       148       150       152       153       148       150       152       158
       149       148       147       153       149       148       150       151
       149       148       150       152       150       148       147       153
       150       152       153       154       150       152       158       159
       150       152       158       160       151       150       152       153
       151       150       152       158       152       153       154       155
       152       153       154       156       152       158       160       156
       152       158       160       161       153       152       158       159
       153       152       158       160       153       154       156       157
       153       154       156       160       154       153       152       158
       154       156       160       158       154       156       160       161
       155       154       156       157       155       154       156       160
       156       160       158       159       157       156       160       158
       157       156       160       161       159       158       160       161
       162       164       166       167       162       164       166       168
       162       164       166       181       163       162       164       165
       163       162       164       166       164       166       168       169
       164       166       168       170       164       166       168       171
       164       166       181       182       164       166       181       183
       165       164       166       167       165       164       166       168
       165       164       166       181       166       168       171       172
       166       168       171       173       166       168       171       177
       166       181       183       184       166       181       183       185
       167       166       168       169       167       166       168       170
       167       166       168       171       167       166       181       182
       167       166       181       183       168       166       181       182
       168       166       181       183       168       171       173       174
       168       171       173       175       168       171       173       176
       168       171       177       178       168       171       177       179
       168       171       177       180       169       168       166       181
       169       168       171       172       169       168       171       173
       169       168       171       177       170       168       166       181
       170       168       171       172       170       168       171       173
       170       168       171       177       171       168       166       181
       172       171       173       174       172       171       173       175
       172       171       173       176       172       171       177       178
       172       171       177       179       172       171       177       180
       173       171       177       178       173       171       177       179
       173       171       177       180       174       173       171       177
       175       173       171       177       176       173       171       177
       181       183       185       186       181       183       185       187
       181       183       185       205       182       181       183       184
       182       181       183       185       183       185       187       188
       183       185       187       189       183       185       187       190
       183       185       205       206       183       185       205       207
       184       183       185       186       184       183       185       187
       184       183       185       205       185       187       190       191
       185       187       190       196       185       205       207       208
       185       205       207       209       186       185       187       188
       186       185       187       189       186       185       187       190
       186       185       205       206       186       185       205       207
       187       185       205       206       187       185       205       207
       187       190       191       192       187       190       191       193
       187       190       196       195       187       190       196       197
       188       187       185       205       188       187       190       191
       188       187       190       196       189       187       185       205
       189       187       190       191       189       187       190       196
       190       187       185       205       190       191       193       194
       190       191       193       195       190       196       195       193
       190       196       195       201       190       196       197       198
       190       196       197       199       191       190       196       195
       191       190       196       197       191       193       195       196
       191       193       195       201       192       191       190       196
       192       191       193       194       192       191       193       195
       193       191       190       196       193       195       196       197
       193       195       201       202       193       195       201       203
       194       193       195       196       194       193       195       201
       195       196       197       198       195       196       197       199
       195       201       203       199       195       201       203       204
       196       195       201       202       196       195       201       203
       196       197       199       200       196       197       199       203
       197       196       195       201       197       199       203       201
       197       199       203       204       198       197       199       200
       198       197       199       203       199       203       201       202
       200       199       203       201       200       199       203       204
       202       201       203       204       205       207       209       210
       205       207       209       211       205       207       209       224
       206       205       207       208       206       205       207       209
       207       209       211       212       207       209       211       213
       207       209       211       214       207       209       224       225
       207       209       224       226       208       207       209       210
       208       207       209       211       208       207       209       224
       209       211       214       215       209       211       214       216
       209       211       214       220       209       224       226       227
       209       224       226       228       210       209       211       212
       210       209       211       213       210       209       211       214
       210       209       224       225       210       209       224       226
       211       209       224       225       211       209       224       226
       211       214       216       217       211       214       216       218
       211       214       216       219       211       214       220       221
       211       214       220       222       211       214       220       223
       212       211       209       224       212       211       214       215
       212       211       214       216       212       211       214       220
       213       211       209       224       213       211       214       215
       213       211       214       216       213       211       214       220
       214       211       209       224       215       214       216       217
       215       214       216       218       215       214       216       219
       215       214       220       221       215       214       220       222
       215       214       220       223       216       214       220       221
       216       214       220       222       216       214       220       223
       217       216       214       220       218       216       214       220
       219       216       214       220       224       226       228       229
       224       226       228       230       224       226       228       248
       225       224       226       227       225       224       226       228
       226       228       230       231       226       228       230       232
       226       228       230       233       226       228       248       249
       226       228       248       250       227       226       228       229
       227       226       228       230       227       226       228       248
       228       230       233       234       228       230       233       239
       229       228       230       231       229       228       230       232
       229       228       230       233       229       228       248       249
       229       228       248       250       230       228       248       249
       230       228       248       250       230       233       234       235
       230       233       234       236       230       233       239       238
       230       233       239       240       231       230       228       248
       231       230       233       234       231       230       233       239
       232       230       228       248       232       230       233       234
       232       230       233       239       233       230       228       248
       233       234       236       237       233       234       236       238
       233       239       238       236       233       239       238       244
       233       239       240       241       233       239       240       242
       234       233       239       238       234       233       239       240
       234       236       238       239       234       236       238       244
       235       234       233       239       235       234       236       237
       235       234       236       238       236       234       233       239
       236       238       239       240       236       238       244       245
       236       238       244       246       237       236       238       239
       237       236       238       244       238       239       240       241
       238       239       240       242       238       244       246       242
       238       244       246       247       239       238       244       245
       239       238       244       246       239       240       242       243
       239       240       242       246       240       239       238       244
       240       242       246       244       240       242       246       247
       241       240       242       243       241       240       242       246
       242       246       244       245       243       242       246       244
       243       242       246       247       245       244       246       247
       251       255       258       259       251       255       258       260
       252       251       255       256       252       251       255       257
       252       251       255       258       253       251       255       256
       253       251       255       257       253       251       255       258
       254       251       255       256       254       251       255       257
       254       251       255       258       255       258       260       261
       255       258       260       262       256       255       258       259
       256       255       258       260       257       255       258       259
       257       255       258       260       258       260       262       263
       258       260       262       264       258       260       262       268
       259       258       260       261       259       258       260       262
       260       262       264       265       260       262       264       266
       260       262       264       267       260       262       268       269
       260       262       268       270       261       260       262       263
       261       260       262       264       261       260       262       268
       262       268       270       271       262       268       270       272
       263       262       264       265       263       262       264       266
       263       262       264       267       263       262       268       269
       263       262       268       270       264       262       268       269
       264       262       268       270       265       264       262       268
       266       264       262       268       267       264       262       268
       268       270       272       273       268       270       272       274
       268       270       272       287       269       268       270       271
       269       268       270       272       270       272       274       275
       270       272       274       276       270       272       274       277
       270       272       287       288       270       272       287       289
       271       270       272       273       271       270       272       274
       271       270       272       287       272       274       277       278
       272       274       277       279       272       274       277       283
       272       287       289       290       272       287       289       291
       273       272       274       275       273       272       274       276
       273       272       274       277       273       272       287       288
       273       272       287       289       274       272       287       288
       274       272       287       289       274       277       279       280
       274       277       279       281       274       277       279       282
       274       277       283       284       274       277       283       285
       274       277       283       286       275       274       272       287
       275       274       277       278       275       274       277       279
       275       274       277       283       276       274       272       287
       276       274       277       278       276       274       277       279
       276       274       277       283       277       274       272       287
       278       277       279       280       278       277       279       281
       278       277       279       282       278       277       283       284
       278       277       283       285       278       277       283       286
       279       277       283       284       279       277       283       285
       279       277       283       286       280       279       277       283
       281       279       277       283       282       279       277       283
       287       289       291       292       287       289       291       293
       287       289       291       297       288       287       289       290
       288       287       289       291       289       291       293       294
       289       291       293       295       289       291       293       296
       289       291       297       298       289       291       297       299
       290       289       291       292       290       289       291       293
       290       289       291       297       291       297       299       300
       291       297       299       301       292       291       293       294
       292       291       293       295       292       291       293       296
       292       291       297       298       292       291       297       299
       293       291       297       298       293       291       297       299
       294       293       291       297       295       293       291       297
       296       293       291       297       297       299       301       302
       297       299       301       303       297       299       301       313
       298       297       299       300       298       297       299       301
       299       301       303       304       299       301       303       305
       299       301       303       309       299       301       313       314
       299       301       313       315       300       299       301       302
       300       299       301       303       300       299       301       313
       301       303       305       306       301       303       305       307
       301       303       305       308       301       303       309       310
       301       303       309       311       301       303       309       312
       301       313       315       316       301       313       315       317
       302       301       303       304       302       301       303       305
       302       301       303       309       302       301       313       314
       302       301       313       315       303       301       313       314
       303       301       313       315       304       303       301       313
       304       303       305       306       304       303       305       307
       304       303       305       308       304       303       309       310
       304       303       309       311       304       303       309       312
       305       303       301       313       305       303       309       310
       305       303       309       311       305       303       309       312
       306       305       303       309       307       305       303       309
       308       305       303       309       309       303       301       313
       313       315       317       318       313       315       317       319
       313       315       317       329       314       313       315       316
       314       313       315       317       315       317       319       320
       315       317       319       321       315       317       319       325
       315       317       329       330       315       317       329       331
       316       315       317       318       316       315       317       319
       316       315       317       329       317       319       321       322
       317       319       321       323       317       319       321       324
       317       319       325       326       317       319       325       327
       317       319       325       328       317       329       331       332
       317       329       331       333       318       317       319       320
       318       317       319       321       318       317       319       325
       318       317       329       330       318       317       329       331
       319       317       329       330       319       317       329       331
       320       319       317       329       320       319       321       322
       320       319       321       323       320       319       321       324
       320       319       325       326       320       319       325       327
       320       319       325       328       321       319       317       329
       321       319       325       326       321       319       325       327
       321       319       325       328       322       321       319       325
       323       321       319       325       324       321       319       325
       325       319       317       329       329       331       333       334
       329       331       333       335       329       331       333       345
       330       329       331       332       330       329       331       333
       331       333       335       336       331       333       335       337
       331       333       335       341       331       333       345       346
       331       333       345       347       332       331       333       334
       332       331       333       335       332       331       333       345
       333       335       337       338       333       335       337       339
       333       335       337       340       333       335       341       342
       333       335       341       343       333       335       341       344
       333       345       347       348       333       345       347       349
       334       333       335       336       334       333       335       337
       334       333       335       341       334       333       345       346
       334       333       345       347       335       333       345       346
       335       333       345       347       336       335       333       345
       336       335       337       338       336       335       337       339
       336       335       337       340       336       335       341       342
       336       335       341       343       336       335       341       344
       337       335       333       345       337       335       341       342
       337       335       341       343       337       335       341       344
       338       337       335       341       339       337       335       341
       340       337       335       341       341       335       333       345
       345       347       349       350       345       347       349       351
       345       347       349       369       346       345       347       348
       346       345       347       349       347       349       351       352
       347       349       351       353       347       349       351       354
       347       349       369       370       347       349       369       371
       348       347       349       350       348       347       349       351
       348       347       349       369       349       351       354       355
       349       351       354       360       349       369       371       372
       349       369       371       373       350       349       351       352
       350       349       351       353       350       349       351       354
       350       349       369       370       350       349       369       371
       351       349       369       370       351       349       369       371
       351       354       355       356       351       354       355       357
       351       354       360       359       351       354       360       361
       352       351       349       369       352       351       354       355
       352       351       354       360       353       351       349       369
       353       351       354       355       353       351       354       360
       354       351       349       369       354       355       357       358
       354       355       357       359       354       360       359       357
       354       360       359       365       354       360       361       362
       354       360       361       363       355       354       360       359
       355       354       360       361       355       357       359       360
       355       357       359       365       356       355       354       360
       356       355       357       358       356       355       357       359
       357       355       354       360       357       359       360       361
       357       359       365       366       357       359       365       367
       358       357       359       360       358       357       359       365
       359       360       361       362       359       360       361       363
       359       365       367       363       359       365       367       368
       360       359       365       366       360       359       365       367
       360       361       363       364       360       361       363       367
       361       360       359       365       361       363       367       365
       361       363       367       368       362       361       363       364
       362       361       363       367       363       367       365       366
       364       363       367       365       364       363       367       368
       366       365       367       368       369       371       373       374
       369       371       373       375       369       371       373       388
       370       369       371       372       370       369       371       373
       371       373       375       376       371       373       375       377
       371       373       375       378       371       373       388       389
       371       373       388       390       372       371       373       374
       372       371       373       375       372       371       373       388
       373       375       378       379       373       375       378       380
       373       375       378       384       373       388       390       391
       373       388       390       392       374       373       375       376
       374       373       375       377       374       373       375       378
       374       373       388       389       374       373       388       390
       375       373       388       389       375       373       388       390
       375       378       380       381       375       378       380       382
       375       378       380       383       375       378       384       385
       375       378       384       386       375       378       384       387
       376       375       373       388       376       375       378       379
       376       375       378       380       376       375       378       384
       377       375       373       388       377       375       378       379
       377       375       378       380       377       375       378       384
       378       375       373       388       379       378       380       381
       379       378       380       382       379       378       380       383
       379       378       384       385       379       378       384       386
       379       378       384       387       380       378       384       385
       380       378       384       386       380       378       384       387
       381       380       378       384       382       380       378       384
       383       380       378       384       388       390       392       393
       388       390       392       394       388       390       392       412
       389       388       390       391       389       388       390       392
       390       392       394       395       390       392       394       396
       390       392       394       397       390       392       412       413
       390       392       412       414       391       390       392       393
       391       390       392       394       391       390       392       412
       392       394       397       398       392       394       397       403
       392       412       414       415       392       412       414       416
       393       392       394       395       393       392       394       396
       393       392       394       397       393       392       412       413
       393       392       412       414       394       392       412       413
       394       392       412       414       394       397       398       399
       394       397       398       400       394       397       403       402
       394       397       403       404       395       394       392       412
       395       394       397       398       395       394       397       403
       396       394       392       412       396       394       397       398
       396       394       397       403       397       394       392       412
       397       398       400       401       397       398       400       402
       397       403       402       400       397       403       402       408
       397       403       404       405       397       403       404       406
       398       397       403       402       398       397       403       404
       398       400       402       403       398       400       402       408
       399       398       397       403       399       398       400       401
       399       398       400       402       400       398       397       403
       400       402       403       404       400       402       408       409
       400       402       408       410       401       400       402       403
       401       400       402       408       402       403       404       405
       402       403       404       406       402       408       410       406
       402       408       410       411       403       402       408       409
       403       402       408       410       403       404       406       407
       403       404       406       410       404       403       402       408
       404       406       410       408       404       406       410       411
       405       404       406       407       405       404       406       410
       406       410       408       409       407       406       410       408
       407       406       410       411       409       408       410       411
       412       414       416       417       412       414       416       418
       412       414       416       431       413       412       414       415
       413       412       414       416       414       416       418       419
       414       416       418       420       414       416       418       421
       414       416       431       432       414       416       431       433
       415       414       416       417       415       414       416       418
       415       414       416       431       416       418       421       422
       416       418       421       423       416       418       421       427
       416       431       433       434       416       431       433       435
       417       416       418       419       417       416       418       420
       417       416       418       421       417       416       431       432
       417       416       431       433       418       416       431       432
       418       416       431       433       418       421       423       424
       418       421       423       425       418       421       423       426
       418       421       427       428       418       421       427       429
       418       421       427       430       419       418       416       431
       419       418       421       422       419       418       421       423
       419       418       421       427       420       418       416       431
       420       418       421       422       420       418       421       423
       420       418       421       427       421       418       416       431
       422       421       423       424       422       421       423       425
       422       421       423       426       422       421       427       428
       422       421       427       429       422       421       427       430
       423       421       427       428       423       421       427       429
       423       421       427       430       424       423       421       427
       425       423       421       427       426       423       421       427
       431       433       435       436       431       433       435       437
       431       433       435       455       432       431       433       434
       432       431       433       435       433       435       437       438
       433       435       437       439       433       435       437       440
       433       435       455       456       433       435       455       457
       434       433       435       436       434       433       435       437
       434       433       435       455       435       437       440       441
       435       437       440       446       435       455       457       458
       435       455       457       459       436       435       437       438
       436       435       437       439       436       435       437       440
       436       435       455       456       436       435       455       457
       437       435       455       456       437       435       455       457
       437       440       441       442       437       440       441       443
       437       440       446       445       437       440       446       447
       438       437       435       455       438       437       440       441
       438       437       440       446       439       437       435       455
       439       437       440       441       439       437       440       446
       440       437       435       455       440       441       443       444
       440       441       443       445       440       446       445       443
       440       446       445       451       440       446       447       448
       440       446       447       449       441       440       446       445
       441       440       446       447       441       443       445       446
       441       443       445       451       442       441       440       446
       442       441       443       444       442       441       443       445
       443       441       440       446       443       445       446       447
       443       445       451       452       443       445       451       453
       444       443       445       446       444       443       445       451
       445       446       447       448       445       446       447       449
       445       451       453       449       445       451       453       454
       446       445       451       452       446       445       451       453
       446       447       449       450       446       447       449       453
       447       446       445       451       447       449       453       451
       447       449       453       454       448       447       449       450
       448       447       449       453       449       453       451       452
       450       449       453       451       450       449       453       454
       452       451       453       454       455       457       459       460
       455       457       459       461       455       457       459       474
       456       455       457       458       456       455       457       459
       457       459       461       462       457       459       461       463
       457       459       461       464       457       459       474       475
       457       459       474       476       458       457       459       460
       458       457       459       461       458       457       459       474
       459       461       464       465       459       461       464       466
       459       461       464       470       459       474       476       477
       459       474       476       478       460       459       461       462
       460       459       461       463       460       459       461       464
       460       459       474       475       460       459       474       476
       461       459       474       475       461       459       474       476
       461       464       466       467       461       464       466       468
       461       464       466       469       461       464       470       471
       461       464       470       472       461       464       470       473
       462       461       459       474       462       461       464       465
       462       461       464       466       462       461       464       470
       463       461       459       474       463       461       464       465
       463       461       464       466       463       461       464       470
       464       461       459       474       465       464       466       467
       465       464       466       468       465       464       466       469
       465       464       470       471       465       464       470       472
       465       464       470       473       466       464       470       471
       466       464       470       472       466       464       470       473
       467       466       464       470       468       466       464       470
       469       466       464       470       474       476       478       479
       474       476       478       480       474       476       478       498
       475       474       476       477       475       474       476       478
       476       478       480       481       476       478       480       482
       476       478       480       483       476       478       498       499
       476       478       498       500       477       476       478       479
       477       476       478       480       477       476       478       498
       478       480       483       484       478       480       483       489
       479       478       480       481       479       478       480       482
       479       478       480       483       479       478       498       499
       479       478       498       500       480       478       498       499
       480       478       498       500       480       483       484       485
       480       483       484       486       480       483       489       488
       480       483       489       490       481       480       478       498
       481       480       483       484       481       480       483       489
       482       480       478       498       482       480       483       484
       482       480       483       489       483       480       478       498
       483       484       486       487       483       484       486       488
       483       489       488       486       483       489       488       494
       483       489       490       491       483       489       490       492
       484       483       489       488       484       483       489       490
       484       486       488       489       484       486       488       494
       485       484       483       489       485       484       486       487
       485       484       486       488       486       484       483       489
       486       488       489       490       486       488       494       495
       486       488       494       496       487       486       488       489
       487       486       488       494       488       489       490       491
       488       489       490       492       488       494       496       492
       488       494       496       497       489       488       494       495
       489       488       494       496       489       490       492       493
       489       490       492       496       490       489       488       494
       490       492       496       494       490       492       496       497
       491       490       492       493       491       490       492       496
       492       496       494       495       493       492       496       494
       493       492       496       497       495       494       496       497

        54 !NIMPHI: impropers
         8         5        10         9        10         8        12        11
        18        12        20        19        20        18        22        21
        37        22        39        38        39        37        41        40
        47        41        49        48        49        47        51        50
        63        51        65        64        65        63        67        66
        79        67        81        80        81        79        83        82
        95        83        97        96        97        95        99        98
       119        99       121       120       121       119       123       122
       138       123       140       139       140       138       142       141
       162       142       164       163       164       162       166       165
       181       166       183       182       183       181       185       184
       205       185       207       206       207       205       209       208
       224       209       226       225       226       224       228       227
       248       228       250       249       258       255       260       259
       260       258       262       261       268       262       270       269
       270       268       272       271       287       272       289       288
       289       287       291       290       297       291       299       298
       299       297       301       300       313       301       315       314
       315       313       317       316       329       317       331       330
       331       329       333       332       345       333       347       346
       347       345       349       348       369       349       371       370
       371       369       373       372       388       373       390       389
       390       388       392       391       412       392       414       413
       414       412       416       415       431       416       433       432
       433       431       435       434       455       435       457       456
       457       455       459       458       474       459       476       475
       476       474       478       477       498       478       500       499

        40 !NDON: donors
         1         2         1         3         1         4        10        11
        20        21        39        40        49        50        65        66
        81        82        97        98       107       108       121       122
       140       141       150       151       164       165       183       184
       193       194       207       208       226       227       236       237
       251       252       251       253       251       254       260       261
       270       271       289       290       299       300       315       316
       331       332       347       348       357       358       371       372
       390       391       400       401       414       415       433       434
       443       444       457       458       476       477       486       487

        30 !NACC: acceptors
         9         8        19        18        38        37        48        47
        64        63        80        79        96        95       120       119
       139       138       163       162       182       181       206       205
       225       224       249       248       250       248       259       258
       269       268       288       287       298       297       314       313
       330       329       346       345       370       369       389       388
       413       412       432       431       456       455       475       474
       499       498       500       498

         0 !NNB

         0         0         0         0         0         0         0         0
         0         0         0         0         0         0         0         0
         0         0         0         0         0         0         0         0
         0         0         0         0         0         0         0         0
         0         0         0         0         0         0         0         0
         0         0         0         0         0         0         0         0
         0         0         0         0         0         0         0         0
         0         0         0         0         0         0         0         0
         0         0         0         0         0         0         0         0
         0         0         0         0         0         0         0         0
         0         0         0         0         0         0         0         0
         0         0         0         0         0         0         0         0
         0         0         0         0         0         0         0         0
         0         0         0         0         0         0         0         0
         0         0         0         0         0         0         0         0
         0         0         0         0         0         0         0         0
         0         0         0         0         0         0         0         0
         0         0         0         0         0         0         0         0
         0         0         0         0         0         0         0         0
         0         0         0         0         0         0         0         0
         0         0         0         0         0         0         0         0
         0         0         0         0         0         0         0         0
         0         0         0         0         0         0         0         0
         0         0         0         0         0         0         0         0
         0         0         0         0         0         0         0         0
         0         0         0         0         0         0         0         0
         0         0         0         0         0         0         0         0
         0         0         0         0         0         0         0         0
         0         0         0         0         0         0         0         0
         0         0         0         0         0         0         0         0
         0         0         0         0         0         0         0         0
         0         0         0         0         0         0         0         0
         0         0         0         0         0         0         0         0
         0         0         0         0         0         0         0         0
         0         0         0         0         0         0         0         0
         0         0         0         0         0         0         0         0
         0         0         0         0         0         0         0         0
         0         0         0         0         0         0         0         0
         0         0         0         0         0         0         0         0
         0         0         0         0         0         0         0         0
         0         0         0         0         0         0         0         0
         0         0         0         0         0         0         0         0
         0         0         0         0         0         0         0         0
         0         0         0         0         0         0         0         0
         0         0         0         0         0         0         0         0
         0         0         0         0         0         0         0         0
         0         0         0         0         0         0         0         0
         0         0         0         0         0         0         0         0
         0         0         0         0         0         0         0         0
         0         0         0         0         0         0         0         0
         0         0         0         0         0         0         0         0
         0         0         0         0         0         0         0         0
         0         0         0         0         0         0         0         0
         0         0         0         0         0         0         0         0
         0         0         0         0         0         0         0         0
         0         0         0         0         0         0         0         0
         0         0         0         0         0         0         0         0
         0         0         0         0         0         0         0         0
         0         0         0         0         0         0         0         0
         0         0         0         0         0         0         0         0
         0         0         0         0         0         0         0         0
         0         0         0         0         0         0         0         0
         0         0         0         0

       126         0 !NGRP NST2
         0         2         0         7         1         0         9         1         0
        13         1         0        17         1         0        19         1         0
        23         1         0        26         1         0        28         1         0
        32         1         0        36         1         0        38         1         0
        42         1         0        46         1         0        48         1         0
        52         1         0        54         1         0        58         1         0
        62         1         0        64         1         0        68         1         0
        70         1         0        74         1         0        78         1         0
        80         1         0        84         1         0        86         1         0
        90         1         0        94         1         0        96         1         0
       100         1         0       103         1         0       118         1         0
       120         1         0       124         1         0       127         1         0
       129         1         0       133         1         0       137         1         0
       139         1         0       143         1         0       146         1         0
       161         1         0       163         1         0       167         1         0
       170         1         0       172         1         0       176         1         0
       180         1         0       182         1         0       186         1         0
       189         1         0       204         1         0       206         1         0
       210         1         0       213         1         0       215         1         0
       219         1         0       223         1         0       225         1         0
       229         1         0       232         1         0       247         2         0
       250         2         0       257         1         0       259         1         0
       263         1         0       267         1         0       269         1         0
       273         1         0       276         1         0       278         1         0
       282         1         0       286         1         0       288         1         0
       292         1         0       296         1         0       298         1         0
       302         1         0       304         1         0       308         1         0
       312         1         0       314         1         0       318         1         0
       320         1         0       324         1         0       328         1         0
       330         1         0       334         1         0       336         1         0
       340         1         0       344         1         0       346         1         0
       350         1         0       353         1         0       368         1         0
       370         1         0       374         1         0       377         1         0
       379         1         0       383         1         0       387         1         0
       389         1         0       393         1         0       396         1         0
       411         1         0       413         1         0       417         1         0
       420         1         0       422         1         0       426         1         0
       430         1         0       432         1         0       436         1         0
       439         1         0       454         1         0       456         1         0
       460         1         0       463         1         0       465         1         0
       469         1         0       473         1         0       475         1         0
       479         1         0       482         1         0       497         2         0

         0         0 !NUMLP NUMLPH

        24 !NCRTERM: cross-terms
         8        10        12        18        10        12        18        20
        18        20        22        37        20        22        37        39
        37        39        41        47        39        41        47        49
        47        49        51        63        49        51        63        65
        63        65        67        79        65        67        79        81
        79        81        83        95        81        83        95        97
        95        97        99       119        97        99       119       121
       119       121       123       138       121       123       138       140
       138       140       142       162       140       142       162       164
       162       164       166       181       164       166       181       183
       181       183       185       205       183       185       205       207
       205       207       209       224       207       209       224       226
       258       260       262       268       260       262       268       270
       268       270       272       287       270       272       287       289
       287       289       291       297       289       291       297       299
       297       299       301       313       299       301       313       315
       313       315       317       329       315       317       329       331
       329       331       333       345       331       333       345       347
       345       347       349       369       347       349       369       371
       369       371       373       388       371       373       388       390
       388       390       392       412       390       392       412       414
       412       414       416       431       414       416       431       433
       431       433       435       455       433       435       455       457
       455       457       459       474       457       459       474       476
