* GENERATED BY CHARMM-GUI (HTTP://WWW.CHARMM-GUI.ORG) V3.7 ON JUL, 07. 2026. JOB
* INPUT GENERATION
*  DATE:     7/ 7/26      9:50:55      CREATED BY USER: charmm-gui
*
     38780  EXT
         1         1  GLY       N              -0.2615924511       -3.0235151175        1.8641074347  PROA      2               0.0000000000
         2         1  GLY       HT1            -0.8262088918       -3.7913744205        1.4556098038  PROA      2               0.0000000000
         3         1  GLY       HT2            -0.7246275936       -2.1252323999        1.6224839037  PROA      2               0.0000000000
         4         1  GLY       HT3            -0.3037812278       -3.0750959151        2.9077390108  PROA      2               0.0000000000
         5         1  GLY       CA              1.1775050858       -3.0314376712        1.4237968837  PROA      2               0.0000000000
         6         1  GLY       HA1             1.2325112938       -2.6276451367        0.4218230798  PROA      2               0.0000000000
         7         1  GLY       HA2             1.5553438004       -4.0396648135        1.5142879694  PROA      2               0.0000000000
         8         1  GLY       C               1.9808549216       -2.1701103764        2.3368250337  PROA      2               0.0000000000
         9         1  GLY       O               1.7909991058       -2.2457961371        3.5458164776  PROA      2               0.0000000000
        10         2  ALA       N               2.8551227622       -1.3189080882        1.7895141393  PROA      3               0.0000000000
        11         2  ALA       HN              2.9960441773       -1.2627955898        0.7956250625  PROA      3               0.0000000000
        12         2  ALA       CA              3.6178850372       -0.3605287055        2.5489384105  PROA      3               0.0000000000
        13         2  ALA       HA              3.2869351649       -0.3826950650        3.5684176119  PROA      3               0.0000000000
        14         2  ALA       CB              5.1103287114       -0.7029629975        2.4696125313  PROA      3               0.0000000000
        15         2  ALA       HB1             5.4058678357       -0.8609503266        1.4104172248  PROA      3               0.0000000000
        16         2  ALA       HB2             5.7389581130        0.0889480201        2.9275921015  PROA      3               0.0000000000
        17         2  ALA       HB3             5.3022190152       -1.6507861659        3.0180702375  PROA      3               0.0000000000
        18         2  ALA       C               3.3138966556        1.0489914782        2.0727728101  PROA      3               0.0000000000
        19         2  ALA       O               2.8243091997        1.2675545441        0.9662684729  PROA      3               0.0000000000
        20         3  LEU       N               3.5065179053        2.0591424822        2.9379527173  PROA      4               0.0000000000
        21         3  LEU       HN              3.8920237656        1.8677451233        3.8360184964  PROA      4               0.0000000000
        22         3  LEU       CA              2.9859706713        3.3970143725        2.6872138954  PROA      4               0.0000000000
        23         3  LEU       HA              2.5773319110        3.4605057457        1.6907051273  PROA      4               0.0000000000
        24         3  LEU       CB              4.0792557519        4.5053644522        2.7789559141  PROA      4               0.0000000000
        25         3  LEU       HB1             4.6493573197        4.4935734703        1.8249026763  PROA      4               0.0000000000
        26         3  LEU       HB2             4.7835205104        4.2262112430        3.5938413395  PROA      4               0.0000000000
        27         3  LEU       CG              3.6152911165        5.9676185979        3.0326772760  PROA      4               0.0000000000
        28         3  LEU       HG              2.9391489080        5.9859491436        3.9197756965  PROA      4               0.0000000000
        29         3  LEU       CD1             4.7885371427        6.8902528718        3.3995770545  PROA      4               0.0000000000
        30         3  LEU       HD11            5.4238628698        6.4219814232        4.1746025756  PROA      4               0.0000000000
        31         3  LEU       HD12            5.4229550186        7.0990317409        2.5131446480  PROA      4               0.0000000000
        32         3  LEU       HD13            4.4082060481        7.8554087191        3.7993153562  PROA      4               0.0000000000
        33         3  LEU       CD2             2.8765076063        6.5587016829        1.8246296696  PROA      4               0.0000000000
        34         3  LEU       HD21            2.0211039438        5.9242004719        1.5309309102  PROA      4               0.0000000000
        35         3  LEU       HD22            2.5048842189        7.5788195904        2.0525247120  PROA      4               0.0000000000
        36         3  LEU       HD23            3.5709549294        6.6229891937        0.9583019667  PROA      4               0.0000000000
        37         3  LEU       C               1.8334204218        3.6906087563        3.6174567866  PROA      4               0.0000000000
        38         3  LEU       O               1.9300485910        3.5015949594        4.8286561074  PROA      4               0.0000000000
        39         4  ALA       N               0.7343512176        4.2405820593        3.0635085703  PROA      5               0.0000000000
        40         4  ALA       HN              0.6740643771        4.4530152853        2.0997966368  PROA      5               0.0000000000
        41         4  ALA       CA             -0.3988357571        4.6585210527        3.8372453688  PROA      5               0.0000000000
        42         4  ALA       HA             -0.2499056198        4.3543122445        4.8500379222  PROA      5               0.0000000000
        43         4  ALA       CB             -0.5588227381        6.1835680260        3.8539844572  PROA      5               0.0000000000
        44         4  ALA       HB1            -1.0521326659        6.5618465231        2.9381217826  PROA      5               0.0000000000
        45         4  ALA       HB2            -1.1708141281        6.4673847408        4.7365721756  PROA      5               0.0000000000
        46         4  ALA       HB3             0.4345551133        6.6678984673        3.9633237366  PROA      5               0.0000000000
        47         4  ALA       C              -1.6555599800        3.9671010728        3.3697392126  PROA      5               0.0000000000
        48         4  ALA       O              -1.9241367169        3.8415458334        2.1709432738  PROA      5               0.0000000000
        49         5  VAL       N              -2.4459353605        3.4726547534        4.3371339964  PROA      6               0.0000000000
        50         5  VAL       HN             -2.1816411850        3.5455170810        5.2988286825  PROA      6               0.0000000000
        51         5  VAL       CA             -3.6296126952        2.6839690673        4.0667644533  PROA      6               0.0000000000
        52         5  VAL       HA             -3.5681848034        2.2493404867        3.0788329132  PROA      6               0.0000000000
        53         5  VAL       CB             -4.9398873125        3.4721954363        4.1915721031  PROA      6               0.0000000000
        54         5  VAL       HB             -5.0471028780        3.8622921170        5.2311172280  PROA      6               0.0000000000
        55         5  VAL       CG1            -4.9295644303        4.6784674805        3.2338166574  PROA      6               0.0000000000
        56         5  VAL       HG11           -4.7813389981        4.3409716900        2.1859490563  PROA      6               0.0000000000
        57         5  VAL       HG12           -5.8935100765        5.2278724445        3.2925137606  PROA      6               0.0000000000
        58         5  VAL       HG13           -4.1170229000        5.3871773945        3.4912360177  PROA      6               0.0000000000
        59         5  VAL       CG2            -6.1516755606        2.5795798363        3.8543651023  PROA      6               0.0000000000
        60         5  VAL       HG21           -6.0429531370        2.1320061515        2.8433985890  PROA      6               0.0000000000
        61         5  VAL       HG22           -6.2859635302        1.7714199301        4.5990213196  PROA      6               0.0000000000
        62         5  VAL       HG23           -7.0809927590        3.1908295429        3.8560514407  PROA      6               0.0000000000
        63         5  VAL       C              -3.6165080023        1.5591661150        5.0731638400  PROA      6               0.0000000000
        64         5  VAL       O              -3.6772587364        1.7871979768        6.2822703669  PROA      6               0.0000000000
        65         6  VAL       N              -3.5418261107        0.3029546931        4.6000913676  PROA      7               0.0000000000
        66         6  VAL       HN             -3.4214482241        0.1317094029        3.6310951386  PROA      7               0.0000000000
        67         6  VAL       CA             -3.5225894810       -0.8530320214        5.4683050181  PROA      7               0.0000000000
        68         6  VAL       HA             -3.4772883641       -0.5337007598        6.4957148441  PROA      7               0.0000000000
        69         6  VAL       CB             -4.7389014409       -1.7865605702        5.3187578464  PROA      7               0.0000000000
        70         6  VAL       HB             -4.5816639743       -2.5347584665        4.5073136893  PROA      7               0.0000000000
        71         6  VAL       CG1            -4.9779958849       -2.5116505690        6.6607696249  PROA      7               0.0000000000
        72         6  VAL       HG11           -5.2504569709       -1.7730503354        7.4445668969  PROA      7               0.0000000000
        73         6  VAL       HG12           -5.8090318800       -3.2421165208        6.5639364387  PROA      7               0.0000000000
        74         6  VAL       HG13           -4.0737621525       -3.0519495332        7.0046290407  PROA      7               0.0000000000
        75         6  VAL       CG2            -6.0134410097       -0.9940382723        4.9620266215  PROA      7               0.0000000000
        76         6  VAL       HG21           -6.1984527896       -0.2021342237        5.7177784679  PROA      7               0.0000000000
        77         6  VAL       HG22           -5.9344055607       -0.5295623794        3.9581944571  PROA      7               0.0000000000
        78         6  VAL       HG23           -6.8889992207       -1.6772086235        4.9523740534  PROA      7               0.0000000000
        79         6  VAL       C              -2.2390184626       -1.5969726618        5.1480715381  PROA      7               0.0000000000
        80         6  VAL       O              -1.9358461983       -1.8800731305        3.9801055380  PROA      7               0.0000000000
        81         7  VAL       N              -1.4547192101       -1.9780298576        6.1701415141  PROA      8               0.0000000000
        82         7  VAL       HN             -1.6176515466       -1.6239178903        7.0983262012  PROA      8               0.0000000000
        83         7  VAL       CA             -0.3731670560       -2.9307843511        6.0183914502  PROA      8               0.0000000000
        84         7  VAL       HA             -0.0078488458       -2.9166401695        5.0077913756  PROA      8               0.0000000000
        85         7  VAL       CB             -0.8686696823       -4.3316231093        6.3458192035  PROA      8               0.0000000000
        86         7  VAL       HB             -1.1921443403       -4.3733946356        7.4144490702  PROA      8               0.0000000000
        87         7  VAL       CG1            -2.0663463085       -4.7260322293        5.4702548932  PROA      8               0.0000000000
        88         7  VAL       HG11           -1.7826987843       -4.8562337629        4.4081330817  PROA      8               0.0000000000
        89         7  VAL       HG12           -2.4444663537       -5.6730706160        5.8736055954  PROA      8               0.0000000000
        90         7  VAL       HG13           -2.9183113720       -4.0311252184        5.5341635486  PROA      8               0.0000000000
        91         7  VAL       CG2             0.2325290848       -5.3620662212        6.1026261349  PROA      8               0.0000000000
        92         7  VAL       HG21            0.6614569662       -5.2561799049        5.0857895293  PROA      8               0.0000000000
        93         7  VAL       HG22            1.0423124230       -5.2633068801        6.8551471062  PROA      8               0.0000000000
        94         7  VAL       HG23           -0.1735524811       -6.3939336502        6.1886742774  PROA      8               0.0000000000
        95         7  VAL       C               0.7956277801       -2.5798562657        6.9277587978  PROA      8               0.0000000000
        96         7  VAL       O               0.6151473772       -2.5122139636        8.1387360669  PROA      8               0.0000000000
        97         8  TRP       N               2.0101050802       -2.3678757850        6.3611704929  PROA      9               0.0000000000
        98         8  TRP       HN              2.1002498957       -2.3738099918        5.3654846561  PROA      9               0.0000000000
        99         8  TRP       CA              3.2270983316       -2.0579580259        7.1079373172  PROA      9               0.0000000000
       100         8  TRP       HA              3.0270357157       -2.0932350909        8.1724163640  PROA      9               0.0000000000
       101         8  TRP       CB              4.4151236661       -3.0278005245        6.7617714797  PROA      9               0.0000000000
       102         8  TRP       HB1             4.5063954851       -3.1219129295        5.6594328000  PROA      9               0.0000000000
       103         8  TRP       HB2             5.3700198389       -2.5888316930        7.1288632211  PROA      9               0.0000000000
       104         8  TRP       CG              4.2982407109       -4.3925606162        7.3651959539  PROA      9               0.0000000000
       105         8  TRP       CD1             4.6172300272       -4.6318227795        8.6647507124  PROA      9               0.0000000000
       106         8  TRP       HD1             5.0499228811       -3.8778515118        9.2867169813  PROA      9               0.0000000000
       107         8  TRP       NE1             4.1987808696       -5.8745734072        9.0453677451  PROA      9               0.0000000000
       108         8  TRP       HE1             3.8184222772       -6.0498694039        9.9288724232  PROA      9               0.0000000000
       109         8  TRP       CE2             3.6693823920       -6.5069299145        7.9684701050  PROA      9               0.0000000000
       110         8  TRP       CD2             3.7472035588       -5.6176427343        6.8655851932  PROA      9               0.0000000000
       111         8  TRP       CE3             3.2929993236       -6.0273332234        5.6166824844  PROA      9               0.0000000000
       112         8  TRP       HE3             3.3557663582       -5.3802725461        4.7568923112  PROA      9               0.0000000000
       113         8  TRP       CZ3             2.6346040764       -7.2561410874        5.5320315313  PROA      9               0.0000000000
       114         8  TRP       HZ3             2.1848846170       -7.5607941395        4.5961171985  PROA      9               0.0000000000
       115         8  TRP       CZ2             3.0463748690       -7.7344557547        7.8751657988  PROA      9               0.0000000000
       116         8  TRP       HZ2             2.9417657708       -8.3862439045        8.7299411496  PROA      9               0.0000000000
       117         8  TRP       CH2             2.4772496831       -8.0720513580        6.6515955442  PROA      9               0.0000000000
       118         8  TRP       HH2             1.9251277614       -9.0002210212        6.5665953021  PROA      9               0.0000000000
       119         8  TRP       C               3.6803921652       -0.6438822178        6.7895686807  PROA      9               0.0000000000
       120         8  TRP       O               4.0115608392       -0.3385622245        5.6454015020  PROA      9               0.0000000000
       121         9  LEU       N               3.7368617894        0.2816707622        7.7574355274  PROA      10              0.0000000000
       122         9  LEU       HN              3.3770737644        0.0845765644        8.6833774584  PROA      10              0.0000000000
       123         9  LEU       CA              3.9830214002        1.6710634037        7.4012631306  PROA      10              0.0000000000
       124         9  LEU       HA              3.5083881716        1.8179759078        6.4385435258  PROA      10              0.0000000000
       125         9  LEU       CB              5.4562977939        2.1531707107        7.1790740579  PROA      10              0.0000000000
       126         9  LEU       HB1             5.8816696867        1.5131933873        6.3768397286  PROA      10              0.0000000000
       127         9  LEU       HB2             5.4123774085        3.1900779437        6.7742677311  PROA      10              0.0000000000
       128         9  LEU       CG              6.4661995058        2.1942986658        8.3549506502  PROA      10              0.0000000000
       129         9  LEU       HG              7.4684790435        2.2659398035        7.8695902369  PROA      10              0.0000000000
       130         9  LEU       CD1             6.3235473283        3.4363834058        9.2471649519  PROA      10              0.0000000000
       131         9  LEU       HD11            5.4355964445        3.3490266601        9.9053012774  PROA      10              0.0000000000
       132         9  LEU       HD12            7.2114361884        3.5630840078        9.8970196387  PROA      10              0.0000000000
       133         9  LEU       HD13            6.2190060866        4.3461422216        8.6319703116  PROA      10              0.0000000000
       134         9  LEU       CD2             6.4561811751        0.9460225815        9.2268261724  PROA      10              0.0000000000
       135         9  LEU       HD21            5.4509147350        0.8257308006        9.6972504204  PROA      10              0.0000000000
       136         9  LEU       HD22            6.6759198772        0.0490268986        8.6128599857  PROA      10              0.0000000000
       137         9  LEU       HD23            7.1877241937        1.0293793098       10.0561435709  PROA      10              0.0000000000
       138         9  LEU       C               3.2019217674        2.5980640393        8.2823305548  PROA      10              0.0000000000
       139         9  LEU       O               3.1878112643        2.5292910690        9.5084550679  PROA      10              0.0000000000
       140        10  TRP       N               2.4757507819        3.5104611517        7.6251770010  PROA      11              0.0000000000
       141        10  TRP       HN              2.4532427860        3.5285746658        6.6244919582  PROA      11              0.0000000000
       142        10  TRP       CA              1.5868315571        4.4091872956        8.2931647538  PROA      11              0.0000000000
       143        10  TRP       HA              1.6827339290        4.2865267535        9.3659995703  PROA      11              0.0000000000
       144        10  TRP       CB              1.8865826658        5.9062237706        8.0003938960  PROA      11              0.0000000000
       145        10  TRP       HB1             1.8878642450        6.0812405450        6.9033808141  PROA      11              0.0000000000
       146        10  TRP       HB2             1.0712390628        6.5329351167        8.4301556551  PROA      11              0.0000000000
       147        10  TRP       CG              3.1843400150        6.3880330295        8.5821783855  PROA      11              0.0000000000
       148        10  TRP       CD1             3.2959246130        6.9601645368        9.8226526992  PROA      11              0.0000000000
       149        10  TRP       HD1             2.4709790520        7.0809328098       10.5092276108  PROA      11              0.0000000000
       150        10  TRP       NE1             4.5990144808        7.3133058873       10.0579614570  PROA      11              0.0000000000
       151        10  TRP       HE1             4.9933515404        7.5101047431       10.9277093858  PROA      11              0.0000000000
       152        10  TRP       CE2             5.3641846011        6.9857421358        8.9797289407  PROA      11              0.0000000000
       153        10  TRP       CD2             4.5147311117        6.3797767362        8.0233747014  PROA      11              0.0000000000
       154        10  TRP       CE3             5.0618449689        5.9136751785        6.8269101626  PROA      11              0.0000000000
       155        10  TRP       HE3             4.4429238603        5.4041063354        6.1025200885  PROA      11              0.0000000000
       156        10  TRP       CZ3             6.4385912772        6.0669195728        6.6081513811  PROA      11              0.0000000000
       157        10  TRP       HZ3             6.8881885023        5.6783675114        5.7037566321  PROA      11              0.0000000000
       158        10  TRP       CZ2             6.7193749749        7.1683542223        8.7523816862  PROA      11              0.0000000000
       159        10  TRP       HZ2             7.3514959414        7.6392865469        9.4878986985  PROA      11              0.0000000000
       160        10  TRP       CH2             7.2501916520        6.6950154587        7.5494529967  PROA      11              0.0000000000
       161        10  TRP       HH2             8.3111987944        6.7984114672        7.3604866055  PROA      11              0.0000000000
       162        10  TRP       C               0.1452025029        4.0742149827        7.9830915683  PROA      11              0.0000000000
       163        10  TRP       O              -0.2795161978        3.6350815932        6.9191272608  PROA      11              0.0000000000
       164        11  LEU       N              -0.6822446298        4.3373393578        8.9735401301  PROA      12              0.0000000000
       165        11  LEU       HN             -0.3147184362        4.5763919812        9.8656745254  PROA      12              0.0000000000
       166        11  LEU       CA             -2.1086340299        4.3775175012        8.8906004534  PROA      12              0.0000000000
       167        11  LEU       HA             -2.4634130525        4.2647737069        7.8733682643  PROA      12              0.0000000000
       168        11  LEU       CB             -2.3960616303        5.7874595307        9.4652587323  PROA      12              0.0000000000
       169        11  LEU       HB1            -1.8847452290        6.4989714126        8.7731770817  PROA      12              0.0000000000
       170        11  LEU       HB2            -1.8986058649        5.8595101095       10.4534700799  PROA      12              0.0000000000
       171        11  LEU       CG             -3.8243132391        6.3154067247        9.6289564058  PROA      12              0.0000000000
       172        11  LEU       HG             -3.7434177149        7.4197766534        9.8062829037  PROA      12              0.0000000000
       173        11  LEU       CD1            -4.6107924033        6.1091616974        8.3445373087  PROA      12              0.0000000000
       174        11  LEU       HD11           -4.9006767553        5.0415995014        8.2589050415  PROA      12              0.0000000000
       175        11  LEU       HD12           -5.5273884550        6.7311449419        8.3343391276  PROA      12              0.0000000000
       176        11  LEU       HD13           -3.9786858835        6.3584046410        7.4710950233  PROA      12              0.0000000000
       177        11  LEU       CD2            -4.5133160358        5.7379601617       10.8694295301  PROA      12              0.0000000000
       178        11  LEU       HD21           -3.9173180843        5.9737274653       11.7797727441  PROA      12              0.0000000000
       179        11  LEU       HD22           -5.5284976305        6.1624458898       11.0053976313  PROA      12              0.0000000000
       180        11  LEU       HD23           -4.5906130135        4.6364965814       10.8024129568  PROA      12              0.0000000000
       181        11  LEU       C              -2.6190849653        3.2179266055        9.7232722567  PROA      12              0.0000000000
       182        11  LEU       O              -2.5110658403        3.2311280656       10.9496962156  PROA      12              0.0000000000
       183        12  TRP       N              -3.1336083380        2.1431831964        9.0906805481  PROA      13              0.0000000000
       184        12  TRP       HN             -3.1832387483        2.0735118260        8.0898540896  PROA      13              0.0000000000
       185        12  TRP       CA             -3.6527609435        1.0065979960        9.8106146336  PROA      13              0.0000000000
       186        12  TRP       HA             -3.6049159500        1.2058961794       10.8733615403  PROA      13              0.0000000000
       187        12  TRP       CB             -5.1391391875        0.7040240242        9.4854936118  PROA      13              0.0000000000
       188        12  TRP       HB1            -5.2523162092        0.5107089520        8.3971160575  PROA      13              0.0000000000
       189        12  TRP       HB2            -5.4817073831       -0.2000246069       10.0332799770  PROA      13              0.0000000000
       190        12  TRP       CG             -6.0144063797        1.8479134306        9.8760320895  PROA      13              0.0000000000
       191        12  TRP       CD1            -6.1827310113        2.2688018322       11.1647032836  PROA      13              0.0097141113
       192        12  TRP       HD1            -5.7622268673        1.7684744960       12.0275111614  PROA      13              0.0285026440
       193        12  TRP       NE1            -6.8421222802        3.4686857056       11.1774271077  PROA      13              0.0057420550
       194        12  TRP       HE1            -6.8506735736        4.1062314218       11.9192850795  PROA      13              0.0000000000
       195        12  TRP       CE2            -7.1006656985        3.8569647559        9.8959640430  PROA      13              0.0000000000
       196        12  TRP       CD2            -6.5915688520        2.8580794876        9.0359041720  PROA      13              0.0000000000
       197        12  TRP       CE3            -6.6729594864        3.0323515009        7.6562426815  PROA      13              0.0000000000
       198        12  TRP       HE3            -6.2808854652        2.2931022339        6.9769483024  PROA      13              0.0000000000
       199        12  TRP       CZ3            -7.2443119790        4.2079576410        7.1646754435  PROA      13              0.0000000000
       200        12  TRP       HZ3            -7.2995955710        4.3653999050        6.0961020505  PROA      13              0.0000000000
       201        12  TRP       CZ2            -7.6778860823        5.0149141010        9.4081642821  PROA      13              0.0000000000
       202        12  TRP       HZ2            -8.0359458138        5.7788533102       10.0780477174  PROA      13              0.0000000000
       203        12  TRP       CH2            -7.7309842820        5.1864722296        8.0266589099  PROA      13              0.0000000000
       204        12  TRP       HH2            -8.1288550459        6.1076054548        7.6208529084  PROA      13              0.0000000000
       205        12  TRP       C              -2.8217810184       -0.2349209969        9.6015430756  PROA      13              0.0000000000
       206        12  TRP       O              -2.3321072413       -0.5607285059        8.5256142863  PROA      13              0.0000000000
       207        13  LEU       N              -2.6872718678       -0.9681703136       10.7013599908  PROA      14              0.0000000000
       208        13  LEU       HN             -2.9176366732       -0.5525886012       11.5715285565  PROA      14              0.0000000000
       209        13  LEU       CA             -2.2647120359       -2.3343615425       10.8029727206  PROA      14              0.0000000000
       210        13  LEU       HA             -2.0620579924       -2.7615903850        9.8291326724  PROA      14              0.0000000000
       211        13  LEU       CB             -3.4734418216       -3.0103202628       11.5300329063  PROA      14              0.0090019548
       212        13  LEU       HB1            -4.3741931745       -2.7896357304       10.9138812403  PROA      14              0.0283556261
       213        13  LEU       HB2            -3.6162480361       -2.4940445364       12.5078047126  PROA      14              0.0301411777
       214        13  LEU       CG             -3.4936558399       -4.5270256056       11.8147281550  PROA      14              0.0194175294
       215        13  LEU       HG             -4.4486494007       -4.7250163333       12.3689377450  PROA      14              0.0150839139
       216        13  LEU       CD1            -3.5404244374       -5.3620986873       10.5386089463  PROA      14              0.0000000000
       217        13  LEU       HD11           -2.6025678912       -5.2371640221        9.9559678046  PROA      14              0.0000000000
       218        13  LEU       HD12           -3.6399319689       -6.4328047356       10.8097636926  PROA      14              0.0000000000
       219        13  LEU       HD13           -4.4071043439       -5.0639997728        9.9121973557  PROA      14              0.0000000000
       220        13  LEU       CD2            -2.3732859838       -5.0079609198       12.7407970813  PROA      14              0.0389697853
       221        13  LEU       HD21           -2.3613716786       -4.4226285843       13.6872604301  PROA      14              0.0585767539
       222        13  LEU       HD22           -2.5065427277       -6.0808070601       12.9906633255  PROA      14              0.0490093951
       223        13  LEU       HD23           -1.3878994103       -4.8921136532       12.2497932448  PROA      14              0.0243048224
       224        13  LEU       C              -0.9892561363       -2.3242480042       11.6326658192  PROA      14              0.0197755222
       225        13  LEU       O              -1.0606899818       -2.1458584462       12.8488469111  PROA      14              0.0453311634
       226        14  TRP       N               0.1955494992       -2.4906379626       11.0109939615  PROA      15              0.0001631266
       227        14  TRP       HN              0.2968462614       -2.4569258015       10.0152352225  PROA      15              0.0000000000
       228        14  TRP       CA              1.4599341947       -2.4637734410       11.7209560616  PROA      15              0.0227969814
       229        14  TRP       HA              1.2873221723       -2.2583847506       12.7678491694  PROA      15              0.0478715786
       230        14  TRP       CB              2.2865825475       -3.7761519396       11.6161149548  PROA      15              0.0170100029
       231        14  TRP       HB1             2.7022682261       -3.8897435876       10.5943166818  PROA      15              0.0000000000
       232        14  TRP       HB2             3.1343649314       -3.6294830033       12.3187029800  PROA      15              0.0000000000
       233        14  TRP       CG              1.5884232765       -5.0360939883       12.0021606503  PROA      15              0.0288409474
       234        14  TRP       CD1             1.5879430027       -5.5765074227       13.2595892659  PROA      15              0.0473887209
       235        14  TRP       HD1             2.0482195708       -5.0871102436       14.1087369622  PROA      15              0.0609799686
       236        14  TRP       NE1             0.8458087273       -6.7344480133       13.2620227242  PROA      15              0.0497372886
       237        14  TRP       HE1             0.3961937022       -7.1276305773       14.0309441376  PROA      15              0.0999184553
       238        14  TRP       CE2             0.3923739628       -6.9815816853       12.0008008155  PROA      15              0.0294269966
       239        14  TRP       CD2             0.8223221996       -5.9191040465       11.1717056021  PROA      15              0.0048506038
       240        14  TRP       CE3             0.4469076624       -5.8955015957        9.8303048544  PROA      15              0.0000000000
       241        14  TRP       HE3             0.7221600362       -5.0652941518        9.1951293238  PROA      15              0.0000000000
       242        14  TRP       CZ3            -0.2914093657       -6.9700036563        9.3295341976  PROA      15              0.0000000000
       243        14  TRP       HZ3            -0.5684242790       -6.9939198291        8.2846285085  PROA      15              0.0000000000
       244        14  TRP       CZ2            -0.3482496905       -8.0405231041       11.5068611739  PROA      15              0.0185148195
       245        14  TRP       HZ2            -0.6472632351       -8.8647631994       12.1347195857  PROA      15              0.0313790576
       246        14  TRP       CH2            -0.6450517323       -8.0395126688       10.1448010945  PROA      15              0.0000000000
       247        14  TRP       HH2            -1.1494100726       -8.8905288058        9.7042900617  PROA      15              0.0000000000
       248        14  TRP       C               2.3575075100       -1.3114001857       11.2217633584  PROA      15              0.0138328418
       249        14  TRP       OT1             2.1225295979       -0.7531897406       10.1175254021  PROA      15              0.0000000000
       250        14  TRP       OT2             3.3344698517       -1.0060499604       11.9513812149  PROA      15              0.0263014214
       251        15  GLY       N              -0.2461798141        2.9934505792       -1.8561688387  PROB      2               0.0000000000
       252        15  GLY       HT1            -0.8490873672        3.7289828080       -1.4385587396  PROB      2               0.0000000000
       253        15  GLY       HT2            -0.6574792146        2.0689836176       -1.6189582999  PROB      2               0.0000000000
       254        15  GLY       HT3            -0.2897389065        3.0547291510       -2.8997936340  PROB      2               0.0000000000
       255        15  GLY       CA              1.1833320743        3.0640497645       -1.3978421722  PROB      2               0.0000000000
       256        15  GLY       HA1             1.2262350780        2.6715414029       -0.3918921005  PROB      2               0.0000000000
       257        15  GLY       HA2             1.5157341164        4.0879813068       -1.4920569635  PROB      2               0.0000000000
       258        15  GLY       C               2.0397023426        2.2282259390       -2.2910842200  PROB      2               0.0000000000
       259        15  GLY       O               1.8167754282        2.2492476519       -3.4962862171  PROB      2               0.0000000000
       260        16  ALA       N               2.9986754456        1.4654517803       -1.7429410683  PROB      3               0.0000000000
       261        16  ALA       HN              3.1647344137        1.4416836360       -0.7508733585  PROB      3               0.0000000000
       262        16  ALA       CA              3.7533068054        0.4920757834       -2.4953402762  PROB      3               0.0000000000
       263        16  ALA       HA              3.4985615534        0.6103675270       -3.5249018162  PROB      3               0.0000000000
       264        16  ALA       CB              5.2769482724        0.6738336096       -2.3369323315  PROB      3               0.0000000000
       265        16  ALA       HB1             5.5929900529        0.5575886599       -1.2788924970  PROB      3               0.0000000000
       266        16  ALA       HB2             5.8232475988       -0.0649671584       -2.9612693870  PROB      3               0.0000000000
       267        16  ALA       HB3             5.5719352608        1.6886636780       -2.6811951446  PROB      3               0.0000000000
       268        16  ALA       C               3.3322598946       -0.9133328802       -2.1182370975  PROB      3               0.0000000000
       269        16  ALA       O               2.8643691295       -1.1766800969       -1.0068793896  PROB      3               0.0000000000
       270        17  LEU       N               3.4413095332       -1.8615789261       -3.0624513407  PROB      4               0.0000000000
       271        17  LEU       HN              3.7987292867       -1.6212970719       -3.9623095442  PROB      4               0.0000000000
       272        17  LEU       CA              2.9916605078       -3.2182703256       -2.8298769376  PROB      4               0.0000000000
       273        17  LEU       HA              2.6457750619       -3.2971177260       -1.8146986269  PROB      4               0.0000000000
       274        17  LEU       CB              4.1503478976       -4.2413366216       -3.0320639791  PROB      4               0.0000000000
       275        17  LEU       HB1             4.8879015514       -4.0931380741       -2.2138592499  PROB      4               0.0000000000
       276        17  LEU       HB2             4.6639827724       -4.0030088918       -3.9908101038  PROB      4               0.0000000000
       277        17  LEU       CG              3.6893889190       -5.7148575206       -3.0622251955  PROB      4               0.0000000000
       278        17  LEU       HG              3.0084093771       -5.8524233675       -3.9366034792  PROB      4               0.0000000000
       279        17  LEU       CD1             4.8327285246       -6.7230596982       -3.2635984181  PROB      4               0.0000000000
       280        17  LEU       HD11            5.5077593749       -6.4159076058       -4.0837982512  PROB      4               0.0000000000
       281        17  LEU       HD12            5.4385962491       -6.8195400478       -2.3375474807  PROB      4               0.0000000000
       282        17  LEU       HD13            4.4122243609       -7.7229933282       -3.5082824192  PROB      4               0.0000000000
       283        17  LEU       CD2             2.9342544355       -6.0361480862       -1.7712210348  PROB      4               0.0000000000
       284        17  LEU       HD21            2.3602924036       -5.1870802628       -1.3647606438  PROB      4               0.0000000000
       285        17  LEU       HD22            2.2301255634       -6.8787467645       -1.9298767655  PROB      4               0.0000000000
       286        17  LEU       HD23            3.6844450177       -6.2688614848       -0.9859675418  PROB      4               0.0000000000
       287        17  LEU       C               1.8066961395       -3.6032006657       -3.7012611282  PROB      4               0.0000000000
       288        17  LEU       O               1.8660302261       -3.4894115560       -4.9223190328  PROB      4               0.0000000000
       289        18  ALA       N               0.7413040416       -4.1714638639       -3.0838144555  PROB      5               0.0000000000
       290        18  ALA       HN              0.7394345088       -4.3273242121       -2.1076895693  PROB      5               0.0000000000
       291        18  ALA       CA             -0.4101286036       -4.6979329844       -3.7832742980  PROB      5               0.0000000000
       292        18  ALA       HA             -0.2961407061       -4.5436980552       -4.8396494461  PROB      5               0.0000000000
       293        18  ALA       CB             -0.5729373915       -6.2126016380       -3.5403377313  PROB      5               0.0000000000
       294        18  ALA       HB1            -0.6968746479       -6.4268295009       -2.4585375528  PROB      5               0.0000000000
       295        18  ALA       HB2            -1.4528023072       -6.6103162290       -4.0907792597  PROB      5               0.0000000000
       296        18  ALA       HB3             0.3374408124       -6.7387828571       -3.9000898706  PROB      5               0.0000000000
       297        18  ALA       C              -1.6737423783       -3.9799078244       -3.3553542747  PROB      5               0.0000000000
       298        18  ALA       O              -1.9841904537       -3.8711575511       -2.1643942906  PROB      5               0.0000000000
       299        19  VAL       N              -2.4432619543       -3.4824291365       -4.3441415047  PROB      6               0.0000000000
       300        19  VAL       HN             -2.1524563896       -3.5500926439       -5.2979446511  PROB      6               0.0000000000
       301        19  VAL       CA             -3.6443223592       -2.7066648884       -4.0921352133  PROB      6               0.0000000000
       302        19  VAL       HA             -3.6055889068       -2.2796585755       -3.0999642503  PROB      6               0.0000000000
       303        19  VAL       CB             -4.9461440093       -3.5034886592       -4.2475978269  PROB      6               0.0000000000
       304        19  VAL       HB             -5.0544428758       -3.8613154333       -5.2991540516  PROB      6               0.0000000000
       305        19  VAL       CG1            -4.9261909060       -4.7447668886       -3.3365410862  PROB      6               0.0000000000
       306        19  VAL       HG11           -4.7896107012       -4.4395034365       -2.2773533284  PROB      6               0.0000000000
       307        19  VAL       HG12           -5.8840326528       -5.3003899069       -3.4256860298  PROB      6               0.0000000000
       308        19  VAL       HG13           -4.1051412385       -5.4378845556       -3.6124566667  PROB      6               0.0000000000
       309        19  VAL       CG2            -6.1614283568       -2.6259226334       -3.8781588251  PROB      6               0.0000000000
       310        19  VAL       HG21           -6.0511586932       -2.2107935246       -2.8537461721  PROB      6               0.0000000000
       311        19  VAL       HG22           -6.3034848925       -1.7952847010       -4.5964950447  PROB      6               0.0000000000
       312        19  VAL       HG23           -7.0885506495       -3.2404246549       -3.8945257302  PROB      6               0.0000000000
       313        19  VAL       C              -3.6511882708       -1.5742030864       -5.0912526339  PROB      6               0.0000000000
       314        19  VAL       O              -3.7233250180       -1.7971111815       -6.2996716538  PROB      6               0.0000000000
       315        20  VAL       N              -3.5923678110       -0.3184585350       -4.6180813904  PROB      7               0.0000000000
       316        20  VAL       HN             -3.4780392802       -0.1405862056       -3.6493196365  PROB      7               0.0000000000
       317        20  VAL       CA             -3.5695194415        0.8317064423       -5.4903670952  PROB      7               0.0000000000
       318        20  VAL       HA             -3.5180291153        0.5154340824       -6.5205245485  PROB      7               0.0000000000
       319        20  VAL       CB             -4.7851581138        1.7640064253       -5.3415497398  PROB      7               0.0000000000
       320        20  VAL       HB             -4.6291632526        2.5035966283       -4.5216885854  PROB      7               0.0000000000
       321        20  VAL       CG1            -5.0094501420        2.5046118906       -6.6784511724  PROB      7               0.0000000000
       322        20  VAL       HG11           -5.2610165539        1.7777978580       -7.4786514507  PROB      7               0.0000000000
       323        20  VAL       HG12           -5.8490597267        3.2248537940       -6.5820097556  PROB      7               0.0000000000
       324        20  VAL       HG13           -4.1042690414        3.0602272289       -6.9953190115  PROB      7               0.0000000000
       325        20  VAL       CG2            -6.0671307767        0.9753156670       -4.9958241699  PROB      7               0.0000000000
       326        20  VAL       HG21           -6.2579595788        0.1848586378       -5.7516713294  PROB      7               0.0000000000
       327        20  VAL       HG22           -5.9991849568        0.5119680503       -3.9903105428  PROB      7               0.0000000000
       328        20  VAL       HG23           -6.9381355735        1.6655224185       -4.9916993444  PROB      7               0.0000000000
       329        20  VAL       C              -2.2855024385        1.5670050076       -5.1598312607  PROB      7               0.0000000000
       330        20  VAL       O              -1.9884283425        1.8527656643       -3.9918741606  PROB      7               0.0000000000
       331        21  VAL       N              -1.4886775715        1.9257645502       -6.1755138218  PROB      8               0.0000000000
       332        21  VAL       HN             -1.6346918064        1.5626400943       -7.1014723240  PROB      8               0.0000000000
       333        21  VAL       CA             -0.4375747350        2.9005197413       -6.0210600093  PROB      8               0.0000000000
       334        21  VAL       HA             -0.0631454317        2.8752371273       -5.0124375907  PROB      8               0.0000000000
       335        21  VAL       CB             -1.0219155794        4.2860820647       -6.3100075116  PROB      8               0.0000000000
       336        21  VAL       HB             -1.4070939272        4.3168676369       -7.3571381210  PROB      8               0.0000000000
       337        21  VAL       CG1            -2.1579005989        4.7017594695       -5.3446681816  PROB      8               0.0000000000
       338        21  VAL       HG11           -1.8331817236        4.6157000512       -4.2894207122  PROB      8               0.0000000000
       339        21  VAL       HG12           -2.4574582719        5.7542350874       -5.5378245148  PROB      8               0.0000000000
       340        21  VAL       HG13           -3.0610815753        4.0788084011       -5.4781032594  PROB      8               0.0000000000
       341        21  VAL       CG2             0.0680463177        5.3073350299       -6.1186097757  PROB      8               0.0000000000
       342        21  VAL       HG21            0.5348014066        5.1889563740       -5.1179204206  PROB      8               0.0000000000
       343        21  VAL       HG22            0.8441246004        5.2024873687       -6.9057904353  PROB      8               0.0000000000
       344        21  VAL       HG23           -0.3448779502        6.3371937867       -6.1828948069  PROB      8               0.0000000000
       345        21  VAL       C               0.7541496889        2.5666400372       -6.9307835467  PROB      8               0.0000000000
       346        21  VAL       O               0.5908795066        2.5146273750       -8.1479108950  PROB      8               0.0000000000
       347        22  TRP       N               1.9693659263        2.3303630872       -6.3532013558  PROB      9               0.0000000000
       348        22  TRP       HN              2.0669024420        2.3600417820       -5.3571129424  PROB      9               0.0000000000
       349        22  TRP       CA              3.1671139785        1.9314966587       -7.1054488189  PROB      9               0.0000000000
       350        22  TRP       HA              2.9350879553        1.9153565965       -8.1634347744  PROB      9               0.0000000000
       351        22  TRP       CB              4.4121759213        2.8399530301       -6.8667149770  PROB      9               0.0000000000
       352        22  TRP       HB1             4.6293009944        2.9481914628       -5.7847858927  PROB      9               0.0000000000
       353        22  TRP       HB2             5.3103543765        2.3823837193       -7.3465472142  PROB      9               0.0000000000
       354        22  TRP       CG              4.2208410408        4.1716368930       -7.4850998056  PROB      9               0.0000000000
       355        22  TRP       CD1             4.2159558050        4.2813556103       -8.8315911522  PROB      9               0.0000000000
       356        22  TRP       HD1             4.4377337514        3.4455752988       -9.4987345476  PROB      9               0.0000000000
       357        22  TRP       NE1             3.7305029779        5.5085918729       -9.1944810618  PROB      9               0.0000000000
       358        22  TRP       HE1             3.2977582395        5.6873010306      -10.0524256545  PROB      9               0.0000000000
       359        22  TRP       CE2             3.3581584255        6.1919880036       -8.0942254930  PROB      9               0.0000000000
       360        22  TRP       CD2             3.6527121358        5.3770460271       -6.9728924948  PROB      9               0.0000000000
       361        22  TRP       CE3             3.2722125334        5.7789815185       -5.7029808256  PROB      9               0.0000000000
       362        22  TRP       HE3             3.4616578696        5.1623702252       -4.8375524762  PROB      9               0.0000000000
       363        22  TRP       CZ3             2.4562732971        6.9002422219       -5.6136368427  PROB      9               0.0000000000
       364        22  TRP       HZ3             1.9798746585        7.1243756967       -4.6680410429  PROB      9               0.0000000000
       365        22  TRP       CZ2             2.6222668983        7.3515923818       -7.9859375060  PROB      9               0.0000000000
       366        22  TRP       HZ2             2.3082815112        7.9021773503       -8.8603989599  PROB      9               0.0000000000
       367        22  TRP       CH2             2.1161829156        7.6607075551       -6.7304298948  PROB      9               0.0000000000
       368        22  TRP       HH2             1.4122188795        8.4775669585       -6.6268123191  PROB      9               0.0000000000
       369        22  TRP       C               3.6268628566        0.5376413285       -6.7638883913  PROB      9               0.0000000000
       370        22  TRP       O               3.9092911367        0.2244158881       -5.6117735005  PROB      9               0.0000000000
       371        23  LEU       N               3.7608987350       -0.3591408849       -7.7456413359  PROB      10              0.0000000000
       372        23  LEU       HN              3.4180516849       -0.1603289366       -8.6741070240  PROB      10              0.0000000000
       373        23  LEU       CA              4.0837149648       -1.7381526159       -7.4416035826  PROB      10              0.0000000000
       374        23  LEU       HA              3.7078311426       -1.9500461533       -6.4478547193  PROB      10              0.0000000000
       375        23  LEU       CB              5.5917179484       -2.1543036017       -7.3919802517  PROB      10              0.0000000000
       376        23  LEU       HB1             6.0862896298       -1.4808562566       -6.6631889295  PROB      10              0.0000000000
       377        23  LEU       HB2             5.6319989621       -3.1789748654       -6.9546485779  PROB      10              0.0000000000
       378        23  LEU       CG              6.4605783740       -2.2100938183       -8.6841568687  PROB      10              0.0000000000
       379        23  LEU       HG              7.5230081593       -2.2535946938       -8.3378191733  PROB      10              0.0000000000
       380        23  LEU       CD1             6.2625202702       -3.5322297801       -9.4388838445  PROB      10              0.0000000000
       381        23  LEU       HD11            5.2881800379       -3.5753571544       -9.9606612461  PROB      10              0.0000000000
       382        23  LEU       HD12            7.0414879303       -3.6850712862      -10.2039828998  PROB      10              0.0000000000
       383        23  LEU       HD13            6.3056258600       -4.3691484738       -8.7230053451  PROB      10              0.0000000000
       384        23  LEU       CD2             6.3446212496       -1.0065605869       -9.6383669499  PROB      10              0.0000000000
       385        23  LEU       HD21            5.8905195981       -0.1281930604       -9.1381184290  PROB      10              0.0000000000
       386        23  LEU       HD22            7.3274229521       -0.7175468261      -10.0592981246  PROB      10              0.0000000000
       387        23  LEU       HD23            5.6774356804       -1.2759569922      -10.4925774270  PROB      10              0.0000000000
       388        23  LEU       C               3.2555197137       -2.6171738507       -8.3246444944  PROB      10              0.0000000000
       389        23  LEU       O               3.2360308654       -2.5340546670       -9.5483036915  PROB      10              0.0000000000
       390        24  TRP       N               2.4888005053       -3.4989348001       -7.6825832028  PROB      11              0.0000000000
       391        24  TRP       HN              2.4300568098       -3.5094874874       -6.6822617410  PROB      11              0.0000000000
       392        24  TRP       CA              1.6140590136       -4.3865965437       -8.3801202749  PROB      11              0.0000000000
       393        24  TRP       HA              1.6982445616       -4.2283570144       -9.4497963764  PROB      11              0.0000000000
       394        24  TRP       CB              1.9719018926       -5.8670637499       -8.1348246175  PROB      11              0.0000000000
       395        24  TRP       HB1             1.9886610497       -6.0766115643       -7.0432552389  PROB      11              0.0000000000
       396        24  TRP       HB2             1.2047377369       -6.5297664964       -8.5932188438  PROB      11              0.0000000000
       397        24  TRP       CG              3.2969930070       -6.2312581073       -8.7276084131  PROB      11              0.0000000000
       398        24  TRP       CD1             3.5003045043       -6.5238115333      -10.0526443657  PROB      11              0.0000000000
       399        24  TRP       HD1             2.7327937956       -6.4704764761      -10.8138839568  PROB      11              0.0000000000
       400        24  TRP       NE1             4.7889512913       -6.9466536677      -10.2373704952  PROB      11              0.0000000000
       401        24  TRP       HE1             5.1997281378       -7.2888216894      -11.0545391871  PROB      11              0.0000000000
       402        24  TRP       CE2             5.4775252440       -6.8234756267       -9.0783776740  PROB      11              0.0000000000
       403        24  TRP       CD2             4.5838978113       -6.3264571282       -8.0972329079  PROB      11              0.0000000000
       404        24  TRP       CE3             5.0651083316       -6.0093541881       -6.8261110871  PROB      11              0.0000000000
       405        24  TRP       HE3             4.4051849773       -5.6189589298       -6.0658272402  PROB      11              0.0000000000
       406        24  TRP       CZ3             6.4472465898       -6.0582804801       -6.6177466548  PROB      11              0.0000000000
       407        24  TRP       HZ3             6.8702339505       -5.7316341421       -5.6767477798  PROB      11              0.0000000000
       408        24  TRP       CZ2             6.8247491898       -6.9903183978       -8.8293582015  PROB      11              0.0000000000
       409        24  TRP       HZ2             7.4994542298       -7.3544781844       -9.5872211094  PROB      11              0.0000000000
       410        24  TRP       CH2             7.3046740172       -6.5121770624       -7.6150858110  PROB      11              0.0000000000
       411        24  TRP       HH2             8.3714709595       -6.4439281519       -7.4744051640  PROB      11              0.0000000000
       412        24  TRP       C               0.1719954417       -4.0993350533       -8.0570127662  PROB      11              0.0000000000
       413        24  TRP       O              -0.2443795864       -3.7540884806       -6.9554679482  PROB      11              0.0000000000
       414        25  LEU       N              -0.6559809555       -4.2459566565       -9.0787062334  PROB      12              0.0000000000
       415        25  LEU       HN             -0.3078277059       -4.2785691493      -10.0112917408  PROB      12              0.0000000000
       416        25  LEU       CA             -2.0794241884       -4.2818253303       -8.9623417080  PROB      12              0.0000000000
       417        25  LEU       HA             -2.4054863399       -4.1610023504       -7.9377392385  PROB      12              0.0000000000
       418        25  LEU       CB             -2.5389940466       -5.6307164816       -9.5734663935  PROB      12              0.0000000000
       419        25  LEU       HB1            -2.1324022302       -6.4277802520       -8.9127688160  PROB      12              0.0000000000
       420        25  LEU       HB2            -2.0816898438       -5.7650678744      -10.5777459787  PROB      12              0.0000000000
       421        25  LEU       CG             -4.0578338870       -5.8524399206       -9.6975458166  PROB      12              0.0000000000
       422        25  LEU       HG             -4.2147385111       -6.9338719557       -9.8987854543  PROB      12              0.0000000000
       423        25  LEU       CD1            -4.7427616105       -5.4640938783       -8.3906521837  PROB      12              0.0000000000
       424        25  LEU       HD11           -4.8631661506       -4.3624822581       -8.3730513975  PROB      12              0.0000000000
       425        25  LEU       HD12           -5.7407586716       -5.9338875870       -8.3052534761  PROB      12              0.0000000000
       426        25  LEU       HD13           -4.1321860007       -5.7314419202       -7.5062861282  PROB      12              0.0000000000
       427        25  LEU       CD2            -4.7218037116       -5.1425146747      -10.8893230605  PROB      12              0.0000000000
       428        25  LEU       HD21           -4.1998612974       -5.3915842208      -11.8355021431  PROB      12              0.0000000000
       429        25  LEU       HD22           -5.7884230069       -5.4283815378      -10.9846223971  PROB      12              0.0000000000
       430        25  LEU       HD23           -4.7070868123       -4.0400599619      -10.7795767232  PROB      12              0.0000000000
       431        25  LEU       C              -2.5871937605       -3.1220071486       -9.7683628881  PROB      12              0.0000000000
       432        25  LEU       O              -2.3760978244       -3.0698367218      -10.9831123579  PROB      12              0.0000000000
       433        26  TRP       N              -3.2819573256       -2.1567002003       -9.1324584005  PROB      13              0.0000000000
       434        26  TRP       HN             -3.4707992389       -2.1795537653       -8.1470681915  PROB      13              0.0000000000
       435        26  TRP       CA             -3.7625263078       -0.9883292017       -9.8238758859  PROB      13              0.0000000000
       436        26  TRP       HA             -3.7668493417       -1.1931018165      -10.8867968575  PROB      13              0.0000000000
       437        26  TRP       CB             -5.2228942145       -0.5757421512       -9.4784002199  PROB      13              0.0000000000
       438        26  TRP       HB1            -5.3091765363       -0.3577135947       -8.3919308691  PROB      13              0.0000000000
       439        26  TRP       HB2            -5.4772997876        0.3593011671      -10.0269202706  PROB      13              0.0000000000
       440        26  TRP       CG             -6.2316407552       -1.6120742076       -9.8587924116  PROB      13              0.0000000000
       441        26  TRP       CD1            -6.7085498103       -1.8248270779      -11.1285884529  PROB      13              0.0000000000
       442        26  TRP       HD1            -6.4272130439       -1.2279565757      -11.9869667602  PROB      13              0.0000000000
       443        26  TRP       NE1            -7.5213604130       -2.9293521776      -11.1322881622  PROB      13              0.0000000000
       444        26  TRP       HE1            -8.0397235591       -3.2930626830      -11.8771065597  PROB      13              0.0000000000
       445        26  TRP       CE2            -7.5929748078       -3.4424821141       -9.8714318605  PROB      13              0.0000000000
       446        26  TRP       CD2            -6.8192296146       -2.6229911652       -9.0231040235  PROB      13              0.0000000000
       447        26  TRP       CE3            -6.7640720484       -2.9092777519       -7.6560469395  PROB      13              0.0000000000
       448        26  TRP       HE3            -6.1947135406       -2.2921713930       -6.9800041641  PROB      13              0.0000000000
       449        26  TRP       CZ3            -7.4356773123       -4.0411600256       -7.1788858642  PROB      13              0.0000000000
       450        26  TRP       HZ3            -7.3910371925       -4.2833114076       -6.1253433406  PROB      13              0.0000000000
       451        26  TRP       CZ2            -8.2293979207       -4.5715453826       -9.4037281961  PROB      13              0.0000000000
       452        26  TRP       HZ2            -8.7709208662       -5.1952199028      -10.0867851950  PROB      13              0.0000000000
       453        26  TRP       CH2            -8.1490771528       -4.8684412244       -8.0412500927  PROB      13              0.0000000000
       454        26  TRP       HH2            -8.6464278758       -5.7467643813       -7.6514275076  PROB      13              0.0000000000
       455        26  TRP       C              -2.8498128632        0.1997497230       -9.6316916506  PROB      13              0.0000000000
       456        26  TRP       O              -2.3282831305        0.5035636964       -8.5628405781  PROB      13              0.0000000000
       457        27  LEU       N              -2.7040137409        0.9303988175      -10.7302560922  PROB      14              0.0000000000
       458        27  LEU       HN             -2.9918170020        0.5350858242      -11.5937101866  PROB      14              0.0000000000
       459        27  LEU       CA             -2.2618828286        2.2927806820      -10.8205412622  PROB      14              0.0000000000
       460        27  LEU       HA             -2.0016262392        2.6901482680       -9.8484803593  PROB      14              0.0000000000
       461        27  LEU       CB             -3.5138002896        3.0036935601      -11.4385459998  PROB      14              0.0000000000
       462        27  LEU       HB1            -4.3570689138        2.7962843922      -10.7394679352  PROB      14              0.0000000000
       463        27  LEU       HB2            -3.7589165641        2.4936836892      -12.3981655860  PROB      14              0.0000000000
       464        27  LEU       CG             -3.5448366894        4.5266399053      -11.6932601631  PROB      14              0.0000000000
       465        27  LEU       HG             -4.5283077401        4.7402690488      -12.1861734060  PROB      14              0.0000000000
       466        27  LEU       CD1            -3.5300240220        5.3265224107      -10.3867088446  PROB      14              0.0000000000
       467        27  LEU       HD11           -2.5624507109        5.1619937833       -9.8708872070  PROB      14              0.0000000000
       468        27  LEU       HD12           -3.6506219435        6.4114280491      -10.5847613188  PROB      14              0.0000000000
       469        27  LEU       HD13           -4.3436903002        4.9844926380       -9.7129590817  PROB      14              0.0000000000
       470        27  LEU       CD2            -2.4683190601        5.0005375943      -12.6730686299  PROB      14              0.0000000000
       471        27  LEU       HD21           -2.5092668756        4.4175489227      -13.6186092490  PROB      14              0.0000000000
       472        27  LEU       HD22           -2.6010385342        6.0747471495      -12.9192063698  PROB      14              0.0000000000
       473        27  LEU       HD23           -1.4627221554        4.8619371926      -12.2314193254  PROB      14              0.0000000000
       474        27  LEU       C              -1.0104465505        2.2788013907      -11.6973117468  PROB      14              0.0000000000
       475        27  LEU       O              -1.1123785705        2.1313637226      -12.9152847754  PROB      14              0.0000000000
       476        28  TRP       N               0.1932723075        2.3926973426      -11.0939546633  PROB      15              0.0000000000
       477        28  TRP       HN              0.3016992604        2.3264504453      -10.1013020027  PROB      15              0.0000000000
       478        28  TRP       CA              1.4748383856        2.4157951438      -11.7858106805  PROB      15              0.0000000000
       479        28  TRP       HA              1.3373960733        2.2259374638      -12.8413075653  PROB      15              0.0000000000
       480        28  TRP       CB              2.2213564812        3.7505535856      -11.5410597076  PROB      15              0.0000000000
       481        28  TRP       HB1             2.3121308708        3.7953868445      -10.4386726787  PROB      15              0.0000000000
       482        28  TRP       HB2             3.2362767046        3.7100759461      -11.9926700439  PROB      15              0.0000000000
       483        28  TRP       CG              1.5368982011        4.9923166422      -11.9855236590  PROB      15              0.0000000000
       484        28  TRP       CD1             1.5153560732        5.5056007867      -13.2526314461  PROB      15              0.0000000000
       485        28  TRP       HD1             1.9395336533        4.9880416283      -14.1055616420  PROB      15              0.0000000000
       486        28  TRP       NE1             0.7147936485        6.6214539753      -13.2731075220  PROB      15              0.0000000000
       487        28  TRP       HE1             0.2291702594        6.9509347913      -14.0544332101  PROB      15              0.0000000000
       488        28  TRP       CE2             0.2387860726        6.8617516240      -12.0169513333  PROB      15              0.0000000000
       489        28  TRP       CD2             0.7221107974        5.8426727532      -11.1712679320  PROB      15              0.0000000000
       490        28  TRP       CE3             0.3098058804        5.7937275707       -9.8392573670  PROB      15              0.0000000000
       491        28  TRP       HE3             0.6150619039        4.9799942351       -9.1961404226  PROB      15              0.0000000000
       492        28  TRP       CZ3            -0.5690907728        6.7767946362       -9.3764992529  PROB      15              0.0000000000
       493        28  TRP       HZ3            -0.9220492044        6.7319508993       -8.3559833346  PROB      15              0.0000000000
       494        28  TRP       CZ2            -0.6545575618        7.8097087343      -11.5635393399  PROB      15              0.0000000000
       495        28  TRP       HZ2            -1.0693767195        8.5373947992      -12.2380103852  PROB      15              0.0000000000
       496        28  TRP       CH2            -1.0567279187        7.7601276085      -10.2286464540  PROB      15              0.0000000000
       497        28  TRP       HH2            -1.7845052319        8.4741741293       -9.8633628739  PROB      15              0.0000000000
       498        28  TRP       C               2.4625688141        1.3418909639      -11.2561711172  PROB      15              0.0000000000
       499        28  TRP       OT1             2.2045227765        0.7271427161      -10.1867063771  PROB      15              0.0000000000
       500        28  TRP       OT2             3.5516431558        1.2146226421      -11.8849378660  PROB      15              0.0000000000
       501        29  DOPC      N             -13.1172980265        0.3906787927       17.2616882437  MEMB      1               0.0000000000
       502        29  DOPC      C12           -13.5760779904       -0.0563029230       18.6420337604  MEMB      1               0.0000000000
       503        29  DOPC      H12A          -12.7496330631       -0.5795942863       19.1056135469  MEMB      1               0.0000000000
       504        29  DOPC      H12B          -14.4355238480       -0.7104110438       18.5547022355  MEMB      1               0.0000000000
       505        29  DOPC      C13           -13.1723126637       -0.6760215600       16.2198325946  MEMB      1               0.0000000000
       506        29  DOPC      H13A          -12.9115944220       -0.2401122577       15.2541504586  MEMB      1               0.0000000000
       507        29  DOPC      H13B          -12.4783732537       -1.4833172893       16.4092664139  MEMB      1               0.0000000000
       508        29  DOPC      H13C          -14.1719572796       -1.0810833286       16.1301498747  MEMB      1               0.0000000000
       509        29  DOPC      C14           -11.7296845080        0.9159438506       17.3964293290  MEMB      1               0.0000000000
       510        29  DOPC      H14A          -11.4104067539        1.4256115603       16.5000816747  MEMB      1               0.0000000000
       511        29  DOPC      H14B          -11.7254003836        1.6876744347       18.1744910076  MEMB      1               0.0000000000
       512        29  DOPC      H14C          -11.0116469187        0.1638390199       17.6803210983  MEMB      1               0.0000000000
       513        29  DOPC      C15           -13.9560602362        1.5586193801       16.8466864151  MEMB      1               0.0000000000
       514        29  DOPC      H15A          -15.0000516651        1.3113285114       16.7526662562  MEMB      1               0.0000000000
       515        29  DOPC      H15B          -13.5873435378        2.0225559238       15.9399728062  MEMB      1               0.0000000000
       516        29  DOPC      H15C          -13.8767596585        2.3133001730       17.6444199493  MEMB      1               0.0000000000
       517        29  DOPC      C11           -13.9660778836        1.0651316027       19.6480245054  MEMB      1               0.0000000000
       518        29  DOPC      H11A          -15.0082272722        1.3954049518       19.4198226770  MEMB      1               0.0000000000
       519        29  DOPC      H11B          -13.9740527665        0.6204357189       20.6762899786  MEMB      1               0.0000000000
       520        29  DOPC      P             -13.1402595481        3.2981400527       20.6896577842  MEMB      1               0.0000000000
       521        29  DOPC      O13           -12.9403151003        2.6839019937       22.0057120205  MEMB      1               0.0000000000
       522        29  DOPC      O14           -14.3948405239        4.0596248366       20.4698388262  MEMB      1               0.0000000000
       523        29  DOPC      O12           -13.0619824010        2.1705365732       19.5706729727  MEMB      1               0.0000000000
       524        29  DOPC      O11           -11.9002218989        4.2475893137       20.4058139000  MEMB      1               0.0000000000
       525        29  DOPC      C1            -10.7924735058        3.9275480701       19.5871108818  MEMB      1               0.0000000000
       526        29  DOPC      HA            -10.7472342781        2.8524897519       19.3099393792  MEMB      1               0.0000000000
       527        29  DOPC      HB             -9.8594435306        4.1387374598       20.1530221488  MEMB      1               0.0000000000
       528        29  DOPC      C2            -10.8424110649        4.8346887959       18.3411578547  MEMB      1               0.0000000000
       529        29  DOPC      HS            -10.8612732399        5.8756460953       18.7338386014  MEMB      1               0.0000000000
       530        29  DOPC      O21           -12.0218240878        4.5176822444       17.5844212175  MEMB      1               0.0000000000
       531        29  DOPC      C21           -12.7375465637        5.5578829337       17.1998641493  MEMB      1               0.0000000000
       532        29  DOPC      O22           -12.5461261678        6.7195114156       17.5142885334  MEMB      1               0.0000000000
       533        29  DOPC      C22           -13.8549574678        5.0655539613       16.2893226408  MEMB      1               0.0000000000
       534        29  DOPC      H2R           -14.7865067790        5.0792307107       16.8953676665  MEMB      1               0.0000000000
       535        29  DOPC      H2S           -13.6510992559        4.0214419195       15.9974888559  MEMB      1               0.0000000000
       536        29  DOPC      C3             -9.6001355257        4.6978524923       17.4342420087  MEMB      1               0.0000000000
       537        29  DOPC      HX             -8.6937978394        5.0320883588       17.9921574928  MEMB      1               0.0000000000
       538        29  DOPC      HY             -9.7535343429        5.4114782469       16.5865096649  MEMB      1               0.0000000000
       539        29  DOPC      O31            -9.4821136897        3.3174385452       17.0226851456  MEMB      1               0.0000000000
       540        29  DOPC      C31            -9.2121303018        3.1317273325       15.7347631991  MEMB      1               0.0000000000
       541        29  DOPC      O32            -8.8890380104        4.0010187167       14.9526844425  MEMB      1               0.0000000000
       542        29  DOPC      C32            -9.4232020458        1.6676253734       15.3617906760  MEMB      1               0.0000000000
       543        29  DOPC      H2X            -9.2958002168        1.0557058555       16.2792086069  MEMB      1               0.0000000000
       544        29  DOPC      H2Y           -10.4570907675        1.5822938860       14.9717562957  MEMB      1               0.0000000000
       545        29  DOPC      C23           -14.0525834715        5.9229756979       15.0220029022  MEMB      1               0.0000000000
       546        29  DOPC      H3R           -13.9112995331        6.9996262138       15.2642048065  MEMB      1               0.0000000000
       547        29  DOPC      H3S           -15.1109000407        5.7938148470       14.6896362022  MEMB      1               0.0000000000
       548        29  DOPC      C24           -13.1658202912        5.5447934712       13.8287292836  MEMB      1               0.0000000000
       549        29  DOPC      H4R           -12.1053547278        5.8106734279       14.0499933730  MEMB      1               0.0000000000
       550        29  DOPC      H4S           -13.4774810767        6.1696470301       12.9570370230  MEMB      1               0.0000000000
       551        29  DOPC      C25           -13.2128154235        4.0659715244       13.4016251669  MEMB      1               0.0000000000
       552        29  DOPC      H5R           -12.5214803102        3.4874000063       14.0552502046  MEMB      1               0.0000000000
       553        29  DOPC      H5S           -12.8074153594        4.0249681033       12.3702217204  MEMB      1               0.0000000000
       554        29  DOPC      C26           -14.5940425133        3.3827405147       13.3961430603  MEMB      1               0.0000000000
       555        29  DOPC      H6R           -15.2598810179        3.8548462095       12.6412360351  MEMB      1               0.0000000000
       556        29  DOPC      H6S           -15.0737309765        3.5059997646       14.3913388025  MEMB      1               0.0000000000
       557        29  DOPC      C27           -14.4843572586        1.8716655890       13.1297104069  MEMB      1               0.0000000000
       558        29  DOPC      H7R           -15.4000882800        1.3578685664       13.5002855304  MEMB      1               0.0000000000
       559        29  DOPC      H7S           -13.6228478637        1.5002681714       13.7308051187  MEMB      1               0.0000000000
       560        29  DOPC      C28           -14.3053974297        1.5226413980       11.6375445366  MEMB      1               0.0000000000
       561        29  DOPC      H8R           -13.7046540077        2.3187011101       11.1487510895  MEMB      1               0.0000000000
       562        29  DOPC      H8S           -15.3002622670        1.5277814446       11.1399861199  MEMB      1               0.0000000000
       563        29  DOPC      C29           -13.6274633739        0.1885481877       11.4703273582  MEMB      1               0.0000000000
       564        29  DOPC      H9R           -13.1736333679       -0.2180979715       12.3864690199  MEMB      1               0.0000000000
       565        29  DOPC      C210          -13.4047498239       -0.4720984639       10.3234615165  MEMB      1               0.0000000000
       566        29  DOPC      H10R          -12.8380201657       -1.4076913989       10.3898846533  MEMB      1               0.0000000000
       567        29  DOPC      C211          -13.7570466863       -0.0753716621        8.9111578798  MEMB      1               0.0000000000
       568        29  DOPC      H11R          -14.2463653014        0.9228126713        8.8681246836  MEMB      1               0.0000000000
       569        29  DOPC      H11S          -14.4626391733       -0.8211978934        8.4834062793  MEMB      1               0.0000000000
       570        29  DOPC      C212          -12.4804712664       -0.0332659475        8.0402095602  MEMB      1               0.0000000000
       571        29  DOPC      H12R          -11.8284114326       -0.9119055711        8.2566983777  MEMB      1               0.0000000000
       572        29  DOPC      H12S          -11.8964477119        0.8759884375        8.3034458413  MEMB      1               0.0000000000
       573        29  DOPC      C213          -12.7360379911       -0.0286732101        6.5268135620  MEMB      1               0.0000000000
       574        29  DOPC      H13R          -11.8301482882        0.3833224869        6.0236446391  MEMB      1               0.0000000000
       575        29  DOPC      H13S          -13.5913406683        0.6290967833        6.2628318445  MEMB      1               0.0000000000
       576        29  DOPC      C214          -12.9478453454       -1.4470498041        5.9975310640  MEMB      1               0.0000000000
       577        29  DOPC      H14R          -13.9586601247       -1.8146638553        6.2859180520  MEMB      1               0.0000000000
       578        29  DOPC      H14S          -12.2021059858       -2.1257389404        6.4732386877  MEMB      1               0.0000000000
       579        29  DOPC      C215          -12.7728310856       -1.5696410042        4.4856414097  MEMB      1               0.0000000000
       580        29  DOPC      H15R          -11.8176604097       -1.1102690280        4.1476376458  MEMB      1               0.0000000000
       581        29  DOPC      H15S          -13.6049621902       -1.0348499391        3.9769437955  MEMB      1               0.0000000000
       582        29  DOPC      C216          -12.7881206077       -3.0392315522        4.0804233330  MEMB      1               0.0000000000
       583        29  DOPC      H16R          -13.5183444266       -3.5784062178        4.7285483662  MEMB      1               0.0000000000
       584        29  DOPC      H16S          -11.7893422643       -3.4985195105        4.2526756322  MEMB      1               0.0000000000
       585        29  DOPC      C217          -13.2448439886       -3.2299976385        2.6430424998  MEMB      1               0.0000000000
       586        29  DOPC      H17R          -12.7148920762       -4.1239492776        2.2534549492  MEMB      1               0.0000000000
       587        29  DOPC      H17S          -12.9487927519       -2.3518798623        2.0253421096  MEMB      1               0.0000000000
       588        29  DOPC      C218          -14.7575710386       -3.4443561078        2.5904924453  MEMB      1               0.0000000000
       589        29  DOPC      H18R          -15.0299210648       -4.3825802230        3.1215780400  MEMB      1               0.0000000000
       590        29  DOPC      H18S          -15.1431353540       -3.4934683798        1.5517688596  MEMB      1               0.0000000000
       591        29  DOPC      H18T          -15.2547706816       -2.6017696381        3.1112702740  MEMB      1               0.0000000000
       592        29  DOPC      C33            -8.4322519839        1.1520270253       14.3016445828  MEMB      1               0.0000000000
       593        29  DOPC      H3X            -8.3896680352        0.0407891469       14.3511988339  MEMB      1               0.0000000000
       594        29  DOPC      H3Y            -7.4045774197        1.5290850019       14.5149188883  MEMB      1               0.0000000000
       595        29  DOPC      C34            -8.8141358202        1.5116650343       12.8637071336  MEMB      1               0.0000000000
       596        29  DOPC      H4X            -8.0159796090        1.0793599834       12.2231160733  MEMB      1               0.0000000000
       597        29  DOPC      H4Y            -8.8186816836        2.6155283459       12.7184217564  MEMB      1               0.0000000000
       598        29  DOPC      C35           -10.1178683589        0.9145626471       12.3236208118  MEMB      1               0.0000000000
       599        29  DOPC      H5X           -10.9815495524        1.5187797854       12.6727400191  MEMB      1               0.0000000000
       600        29  DOPC      H5Y           -10.2392044563       -0.1138491336       12.7279614327  MEMB      1               0.0000000000
       601        29  DOPC      C36           -10.0848467856        0.8216315083       10.7835556342  MEMB      1               0.0000000000
       602        29  DOPC      H6X            -9.1954254701        0.2155437253       10.4946609709  MEMB      1               0.0000000000
       603        29  DOPC      H6Y           -10.9705333089        0.2840544562       10.4112686115  MEMB      1               0.0000000000
       604        29  DOPC      C37            -9.9851902599        2.1716151776       10.0503908687  MEMB      1               0.0000000000
       605        29  DOPC      H7X            -9.0827437136        2.6567036245       10.4485721688  MEMB      1               0.0000000000
       606        29  DOPC      H7Y            -9.8228818680        2.0178021493        8.9607445679  MEMB      1               0.0000000000
       607        29  DOPC      C38           -11.1816859410        3.1173674307       10.2553688654  MEMB      1               0.0000000000
       608        29  DOPC      H8X           -11.5590261872        2.9396693482       11.2762539553  MEMB      1               0.0000000000
       609        29  DOPC      H8Y           -11.9955310470        2.8133180064        9.5628243602  MEMB      1               0.0000000000
       610        29  DOPC      C39           -10.8311787683        4.5822968489       10.1415929860  MEMB      1               0.0000000000
       611        29  DOPC      H9X           -10.2757152256        4.9797380168       11.0058584337  MEMB      1               0.0000000000
       612        29  DOPC      C310          -11.0584909236        5.3934307786        9.0946668619  MEMB      1               0.0000000000
       613        29  DOPC      H10X          -10.7102763279        6.4367641021        9.1424508199  MEMB      1               0.0000000000
       614        29  DOPC      C311          -11.7178957802        4.9964772005        7.8013924687  MEMB      1               0.0000000000
       615        29  DOPC      H11X          -12.3067710624        5.8481895573        7.4003864379  MEMB      1               0.0000000000
       616        29  DOPC      H11Y          -12.4296459900        4.1539228828        7.9466959523  MEMB      1               0.0000000000
       617        29  DOPC      C312          -10.6474837233        4.5583364535        6.7866039894  MEMB      1               0.0000000000
       618        29  DOPC      H12X          -10.0721431305        3.7025779677        7.2135413057  MEMB      1               0.0000000000
       619        29  DOPC      H12Y           -9.9373402872        5.3928554306        6.6000246077  MEMB      1               0.0000000000
       620        29  DOPC      C313          -11.2125575371        4.1263104218        5.4346808547  MEMB      1               0.0000000000
       621        29  DOPC      H13X          -10.4121881126        3.6063405358        4.8581161424  MEMB      1               0.0000000000
       622        29  DOPC      H13Y          -12.0257762087        3.3890706989        5.6045334531  MEMB      1               0.0000000000
       623        29  DOPC      C314          -11.6971048178        5.3253773975        4.6119278479  MEMB      1               0.0000000000
       624        29  DOPC      H14X          -12.3748408331        5.9665184376        5.2172247324  MEMB      1               0.0000000000
       625        29  DOPC      H14Y          -10.8089692932        5.9386472472        4.3359372166  MEMB      1               0.0000000000
       626        29  DOPC      C315          -12.4215506428        4.9023900483        3.3364126047  MEMB      1               0.0000000000
       627        29  DOPC      H15X          -11.8076263469        4.1323245634        2.8170728944  MEMB      1               0.0000000000
       628        29  DOPC      H15Y          -12.5128991218        5.7825804806        2.6593252723  MEMB      1               0.0000000000
       629        29  DOPC      C316          -13.8265457800        4.3530187305        3.6007718468  MEMB      1               0.0000000000
       630        29  DOPC      H16X          -13.8453333491        3.7338462129        4.5258250732  MEMB      1               0.0000000000
       631        29  DOPC      H16Y          -14.5248074319        5.2059281902        3.7647819525  MEMB      1               0.0000000000
       632        29  DOPC      C317          -14.3297912574        3.4829286683        2.4475937795  MEMB      1               0.0000000000
       633        29  DOPC      H17X          -13.8769341122        2.4672930822        2.5502932263  MEMB      1               0.0000000000
       634        29  DOPC      H17Y          -15.4325795231        3.3822387780        2.5685735192  MEMB      1               0.0000000000
       635        29  DOPC      C318          -14.0105781488        4.0107925477        1.0468162321  MEMB      1               0.0000000000
       636        29  DOPC      H18X          -14.7545037724        3.6401474855        0.3119201090  MEMB      1               0.0000000000
       637        29  DOPC      H18Y          -14.0211170401        5.1195292512        1.0341165009  MEMB      1               0.0000000000
       638        29  DOPC      H18Z          -13.0037521917        3.6757174459        0.7189982939  MEMB      1               0.0000000000
       639        30  DOPC      N               2.0604538101       10.5998342187       18.7943175105  MEMB      2               0.0000000000
       640        30  DOPC      C12             1.0470730816        9.9883228507       19.7434049172  MEMB      2               0.0000000000
       641        30  DOPC      H12A            0.7546286418       10.7504990180       20.4633971476  MEMB      2               0.0000000000
       642        30  DOPC      H12B            1.5355090209        9.1893841367       20.2838416620  MEMB      2               0.0000000000
       643        30  DOPC      C13             2.5454250504        9.5935879105       17.8025465612  MEMB      2               0.0000000000
       644        30  DOPC      H13A            1.7169843007        9.2787316953       17.1741098367  MEMB      2               0.0000000000
       645        30  DOPC      H13B            3.3163285846       10.0078706094       17.1639147207  MEMB      2               0.0000000000
       646        30  DOPC      H13C            2.9498124266        8.7221512838       18.3036337573  MEMB      2               0.0000000000
       647        30  DOPC      C14             3.2144054080       11.1228776763       19.5948388513  MEMB      2               0.0000000000
       648        30  DOPC      H14A            3.7900166573       10.2966600330       20.0088432062  MEMB      2               0.0000000000
       649        30  DOPC      H14B            3.8658543128       11.7207444860       18.9742830211  MEMB      2               0.0000000000
       650        30  DOPC      H14C            2.8436769794       11.7001277512       20.4388811480  MEMB      2               0.0000000000
       651        30  DOPC      C15             1.4168354741       11.7315213014       18.0542141777  MEMB      2               0.0000000000
       652        30  DOPC      H15A            0.4808093183       11.3772709486       17.6147848711  MEMB      2               0.0000000000
       653        30  DOPC      H15B            2.0709852753       12.1267890307       17.2949861177  MEMB      2               0.0000000000
       654        30  DOPC      H15C            1.1164688081       12.5307862208       18.7148756746  MEMB      2               0.0000000000
       655        30  DOPC      C11            -0.2579125304        9.4493110011       19.1293850498  MEMB      2               0.0000000000
       656        30  DOPC      H11A            0.0206270332        8.7301023586       18.3342500002  MEMB      2               0.0000000000
       657        30  DOPC      H11B           -0.8361102852        8.8641055753       19.8816825396  MEMB      2               0.0000000000
       658        30  DOPC      P              -2.0279006481       11.3751075698       19.4196750598  MEMB      2               0.0000000000
       659        30  DOPC      O13            -1.6522317652       12.7766995924       19.1304513050  MEMB      2               0.0000000000
       660        30  DOPC      O14            -1.9063099062       10.9575244285       20.8407555397  MEMB      2               0.0000000000
       661        30  DOPC      O12            -1.0388546783       10.4958996925       18.5616514316  MEMB      2               0.0000000000
       662        30  DOPC      O11            -3.4710894883       11.0283659405       18.8870199903  MEMB      2               0.0000000000
       663        30  DOPC      C1             -3.8591950811        9.6361052964       18.8342822420  MEMB      2               0.0000000000
       664        30  DOPC      HA             -4.9441002043        9.5635077735       19.0837438962  MEMB      2               0.0000000000
       665        30  DOPC      HB             -3.3357623874        8.9963241236       19.5846884553  MEMB      2               0.0000000000
       666        30  DOPC      C2             -3.6868067628        8.9690280638       17.4285968448  MEMB      2               0.0000000000
       667        30  DOPC      HS             -4.1475234116        7.9544137599       17.5105981464  MEMB      2               0.0000000000
       668        30  DOPC      O21            -2.3147006358        8.9319471846       17.0054080963  MEMB      2               0.0000000000
       669        30  DOPC      C21            -1.8211066831        7.7685739695       16.6809496805  MEMB      2               0.0000000000
       670        30  DOPC      O22            -2.3414078215        6.6852844416       16.8746551272  MEMB      2               0.0000000000
       671        30  DOPC      C22            -0.5342464241        7.9753559720       15.8726654894  MEMB      2               0.0000000000
       672        30  DOPC      H2R             0.1878479381        7.1965806230       16.1901263712  MEMB      2               0.0000000000
       673        30  DOPC      H2S            -0.1240010195        8.9838853835       16.0804954151  MEMB      2               0.0000000000
       674        30  DOPC      C3             -4.4807195194        9.7376978466       16.3548402253  MEMB      2               0.0000000000
       675        30  DOPC      HX             -5.4744864090        9.8872555120       16.8291413282  MEMB      2               0.0000000000
       676        30  DOPC      HY             -4.6204021226        9.1095989863       15.4471614858  MEMB      2               0.0000000000
       677        30  DOPC      O31            -3.9018479884       11.0268507937       16.0668445259  MEMB      2               0.0000000000
       678        30  DOPC      C31            -3.3323084249       11.2324219987       14.9014518911  MEMB      2               0.0000000000
       679        30  DOPC      O32            -3.2150340356       10.4395041110       13.9862769034  MEMB      2               0.0000000000
       680        30  DOPC      C32            -2.8598126840       12.6901977624       14.8729428231  MEMB      2               0.0000000000
       681        30  DOPC      H2X            -3.2940528031       13.2209866031       15.7479316351  MEMB      2               0.0000000000
       682        30  DOPC      H2Y            -1.7578532462       12.7128808985       14.9703677937  MEMB      2               0.0000000000
       683        30  DOPC      C23            -0.8878547619        7.8200136384       14.3839410406  MEMB      2               0.0000000000
       684        30  DOPC      H3R            -1.5462334944        8.6635107533       14.0771751245  MEMB      2               0.0000000000
       685        30  DOPC      H3S            -1.4735525371        6.8752775485       14.2692691384  MEMB      2               0.0000000000
       686        30  DOPC      C24             0.2835524847        7.7269813678       13.4051583027  MEMB      2               0.0000000000
       687        30  DOPC      H4R             0.9917927286        6.9405691177       13.7508442018  MEMB      2               0.0000000000
       688        30  DOPC      H4S             0.8369254549        8.6873431435       13.3434571414  MEMB      2               0.0000000000
       689        30  DOPC      C25            -0.2672473972        7.3041313342       12.0322116298  MEMB      2               0.0000000000
       690        30  DOPC      H5R            -0.9858447670        6.4721175447       12.2211175605  MEMB      2               0.0000000000
       691        30  DOPC      H5S             0.5398886767        6.8918263476       11.3951940146  MEMB      2               0.0000000000
       692        30  DOPC      C26            -1.0075062242        8.4182815626       11.2667155996  MEMB      2               0.0000000000
       693        30  DOPC      H6R            -1.8782775750        8.7831456423       11.8548607445  MEMB      2               0.0000000000
       694        30  DOPC      H6S            -1.4108085590        8.0005596765       10.3224011526  MEMB      2               0.0000000000
       695        30  DOPC      C27            -0.1066605432        9.5984189378       10.8878902929  MEMB      2               0.0000000000
       696        30  DOPC      H7R             0.8890819990        9.1927742452       10.5978694807  MEMB      2               0.0000000000
       697        30  DOPC      H7S             0.0423548072       10.2310146421       11.7852788871  MEMB      2               0.0000000000
       698        30  DOPC      C28            -0.6320119322       10.4373048488        9.7046119426  MEMB      2               0.0000000000
       699        30  DOPC      H8R            -0.8899532554        9.7508714983        8.8678886270  MEMB      2               0.0000000000
       700        30  DOPC      H8S             0.2228972833       11.0541508261        9.3464253645  MEMB      2               0.0000000000
       701        30  DOPC      C29            -1.7715835891       11.3623753086       10.0601160222  MEMB      2               0.0000000000
       702        30  DOPC      H9R            -1.5683518149       12.0154760192       10.9233670515  MEMB      2               0.0000000000
       703        30  DOPC      C210           -2.9657225441       11.4490732313        9.4419798124  MEMB      2               0.0000000000
       704        30  DOPC      H10R           -3.6841139139       12.2119068979        9.7845370037  MEMB      2               0.0000000000
       705        30  DOPC      C211           -3.4089470762       10.6239176293        8.2561068670  MEMB      2               0.0000000000
       706        30  DOPC      H11R           -3.1489231580        9.5591374715        8.4389761011  MEMB      2               0.0000000000
       707        30  DOPC      H11S           -2.8807736168       10.9538480818        7.3328698767  MEMB      2               0.0000000000
       708        30  DOPC      C212           -4.9307106804       10.7063667095        8.0174045869  MEMB      2               0.0000000000
       709        30  DOPC      H12R           -5.1801117541       11.7444832385        7.6941721676  MEMB      2               0.0000000000
       710        30  DOPC      H12S           -5.4325358792       10.4649318646        8.9813373430  MEMB      2               0.0000000000
       711        30  DOPC      C213           -5.5825833437        9.7624422161        6.9953680587  MEMB      2               0.0000000000
       712        30  DOPC      H13R           -6.6156403229       10.1384678933        6.8023755641  MEMB      2               0.0000000000
       713        30  DOPC      H13S           -5.6887882656        8.7425949125        7.4241169360  MEMB      2               0.0000000000
       714        30  DOPC      C214           -4.8466827863        9.6803420876        5.6646813862  MEMB      2               0.0000000000
       715        30  DOPC      H14R           -4.3842974442       10.6644138754        5.4303990203  MEMB      2               0.0000000000
       716        30  DOPC      H14S           -5.5994654939        9.4455307065        4.8757940736  MEMB      2               0.0000000000
       717        30  DOPC      C215           -3.8000136029        8.5642915576        5.6816490000  MEMB      2               0.0000000000
       718        30  DOPC      H15R           -4.3287978592        7.6068226143        5.8926494443  MEMB      2               0.0000000000
       719        30  DOPC      H15S           -3.0778997517        8.7233151719        6.5103240236  MEMB      2               0.0000000000
       720        30  DOPC      C216           -3.0099427012        8.3915748098        4.3868642728  MEMB      2               0.0000000000
       721        30  DOPC      H16R           -3.1950379296        7.3534822308        4.0263254003  MEMB      2               0.0000000000
       722        30  DOPC      H16S           -1.9228449383        8.4830092065        4.6124675209  MEMB      2               0.0000000000
       723        30  DOPC      C217           -3.3419646563        9.3457081401        3.2402641654  MEMB      2               0.0000000000
       724        30  DOPC      H17R           -2.8652829360       10.3336966181        3.4300969399  MEMB      2               0.0000000000
       725        30  DOPC      H17S           -4.4364771201        9.5129903044        3.1432392727  MEMB      2               0.0000000000
       726        30  DOPC      C218           -2.8595458721        8.7544505806        1.9222935108  MEMB      2               0.0000000000
       727        30  DOPC      H18R           -3.4258698616        7.8203700769        1.7089450770  MEMB      2               0.0000000000
       728        30  DOPC      H18S           -1.7811307730        8.5000328943        1.9925751309  MEMB      2               0.0000000000
       729        30  DOPC      H18T           -3.0144301979        9.4599163530        1.0816799104  MEMB      2               0.0000000000
       730        30  DOPC      C33            -3.3195516889       13.3855201153       13.5768803496  MEMB      2               0.0000000000
       731        30  DOPC      H3X            -4.4156819447       13.2334023809       13.4669851035  MEMB      2               0.0000000000
       732        30  DOPC      H3Y            -2.8323842693       12.9114112914       12.6955215808  MEMB      2               0.0000000000
       733        30  DOPC      C34            -3.0766145218       14.8978509361       13.5836171466  MEMB      2               0.0000000000
       734        30  DOPC      H4X            -2.9029025963       15.2577391027       14.6185212527  MEMB      2               0.0000000000
       735        30  DOPC      H4Y            -4.0122081089       15.3920978036       13.2247974280  MEMB      2               0.0000000000
       736        30  DOPC      C35            -1.9419334002       15.3304414636       12.6517428045  MEMB      2               0.0000000000
       737        30  DOPC      H5X            -1.3615335443       14.4400968214       12.3243692367  MEMB      2               0.0000000000
       738        30  DOPC      H5Y            -1.2161330043       16.0014684789       13.1586988489  MEMB      2               0.0000000000
       739        30  DOPC      C36            -2.5220798665       16.0180906056       11.4122969555  MEMB      2               0.0000000000
       740        30  DOPC      H6X            -3.0579389225       15.2086903878       10.8664124441  MEMB      2               0.0000000000
       741        30  DOPC      H6Y            -3.3155070064       16.7573772388       11.6608954228  MEMB      2               0.0000000000
       742        30  DOPC      C37            -1.4414570185       16.7149116430       10.5660063597  MEMB      2               0.0000000000
       743        30  DOPC      H7X            -1.4670129026       17.8111664362       10.7630964093  MEMB      2               0.0000000000
       744        30  DOPC      H7Y            -0.4307500738       16.3634049130       10.8666437577  MEMB      2               0.0000000000
       745        30  DOPC      C38            -1.6010954261       16.4642408471        9.0652095134  MEMB      2               0.0000000000
       746        30  DOPC      H8X            -0.7296526835       16.8687412148        8.5044989845  MEMB      2               0.0000000000
       747        30  DOPC      H8Y            -2.4862868046       17.0670190653        8.7544944215  MEMB      2               0.0000000000
       748        30  DOPC      C39            -1.7672798782       14.9785617536        8.8196694929  MEMB      2               0.0000000000
       749        30  DOPC      H9X            -1.2740051757       14.3173986491        9.5222834888  MEMB      2               0.0000000000
       750        30  DOPC      C310           -2.4040983929       14.4188357729        7.7971863697  MEMB      2               0.0000000000
       751        30  DOPC      H10X           -2.4253132060       13.3313699780        7.6266859931  MEMB      2               0.0000000000
       752        30  DOPC      C311           -3.0047025054       15.2921389546        6.7752121450  MEMB      2               0.0000000000
       753        30  DOPC      H11X           -3.3316384978       16.2680032888        7.1864929433  MEMB      2               0.0000000000
       754        30  DOPC      H11Y           -3.8573489901       14.8174496213        6.2396296389  MEMB      2               0.0000000000
       755        30  DOPC      C312           -1.9003063169       15.6870394423        5.8596836405  MEMB      2               0.0000000000
       756        30  DOPC      H12X           -0.8797186547       15.6175835861        6.3022433679  MEMB      2               0.0000000000
       757        30  DOPC      H12Y           -2.0311647330       16.7745394774        5.6380375713  MEMB      2               0.0000000000
       758        30  DOPC      C313           -2.0259468012       14.8745333737        4.5991479868  MEMB      2               0.0000000000
       759        30  DOPC      H13X           -1.3699208761       13.9811526800        4.6682230442  MEMB      2               0.0000000000
       760        30  DOPC      H13Y           -3.0373650675       14.4488597125        4.4427563561  MEMB      2               0.0000000000
       761        30  DOPC      C314           -1.6900666454       15.8354097420        3.4860028323  MEMB      2               0.0000000000
       762        30  DOPC      H14X           -1.7446510750       15.3032519651        2.5206111794  MEMB      2               0.0000000000
       763        30  DOPC      H14Y           -2.4079117622       16.6865427845        3.4695028642  MEMB      2               0.0000000000
       764        30  DOPC      C315           -0.2791455955       16.3620801351        3.6728916875  MEMB      2               0.0000000000
       765        30  DOPC      H15X           -0.1951374100       17.1713747454        4.4321145209  MEMB      2               0.0000000000
       766        30  DOPC      H15Y            0.0196525297       16.7734804549        2.6885402481  MEMB      2               0.0000000000
       767        30  DOPC      C316            0.6402605989       15.2134571671        4.0583591746  MEMB      2               0.0000000000
       768        30  DOPC      H16X            0.6748964083       15.0257835804        5.1537348331  MEMB      2               0.0000000000
       769        30  DOPC      H16Y            0.2994911313       14.2796750690        3.5513730252  MEMB      2               0.0000000000
       770        30  DOPC      C317            2.0096646422       15.4512702567        3.5424483093  MEMB      2               0.0000000000
       771        30  DOPC      H17X            1.8873225387       15.7623543256        2.4801496314  MEMB      2               0.0000000000
       772        30  DOPC      H17Y            2.4823069709       16.2656629329        4.1253738190  MEMB      2               0.0000000000
       773        30  DOPC      C318            2.8458447514       14.2049549640        3.5834312580  MEMB      2               0.0000000000
       774        30  DOPC      H18X            3.7189731299       14.4499529738        2.9774614201  MEMB      2               0.0000000000
       775        30  DOPC      H18Y            3.1820019736       13.9295088657        4.6031165244  MEMB      2               0.0000000000
       776        30  DOPC      H18Z            2.3528745430       13.3390686317        3.1005529537  MEMB      2               0.0000000000
       777        31  DOPC      N               4.4029471647       -9.7071603766       20.2400611936  MEMB      3               0.0000000000
       778        31  DOPC      C12             5.6498560314       -9.6446614475       19.3380045781  MEMB      3               0.0000000000
       779        31  DOPC      H12A            6.5181710039       -9.4986275155       19.9738478969  MEMB      3               0.0000000000
       780        31  DOPC      H12B            5.5558870968       -8.7526775997       18.7264277241  MEMB      3               0.0000000000
       781        31  DOPC      C13             4.4319414752      -10.8914076076       21.1504679172  MEMB      3               0.0000000000
       782        31  DOPC      H13A            3.7280411402      -10.8417348782       21.9691198041  MEMB      3               0.0000000000
       783        31  DOPC      H13B            4.1828761428      -11.7768675977       20.5615940976  MEMB      3               0.0000000000
       784        31  DOPC      H13C            5.4296707520      -11.0621427403       21.5378187380  MEMB      3               0.0000000000
       785        31  DOPC      C14             3.1904373407       -9.8073346129       19.3722945487  MEMB      3               0.0000000000
       786        31  DOPC      H14A            3.2349253606       -9.0697728883       18.5872889852  MEMB      3               0.0000000000
       787        31  DOPC      H14B            3.1945770215      -10.7938046443       18.8950957392  MEMB      3               0.0000000000
       788        31  DOPC      H14C            2.2724083540       -9.7014593669       19.9337457072  MEMB      3               0.0000000000
       789        31  DOPC      C15             4.3255154199       -8.4496125246       21.0550297140  MEMB      3               0.0000000000
       790        31  DOPC      H15A            4.4406011204       -7.5665933638       20.4333814617  MEMB      3               0.0000000000
       791        31  DOPC      H15B            5.1037961487       -8.4146070513       21.8125114016  MEMB      3               0.0000000000
       792        31  DOPC      H15C            3.3729359319       -8.3768524807       21.5818341502  MEMB      3               0.0000000000
       793        31  DOPC      C11             6.0006283589      -10.7824154714       18.3299864416  MEMB      3               0.0000000000
       794        31  DOPC      H11A            5.2183182323      -10.8345078598       17.5330864425  MEMB      3               0.0000000000
       795        31  DOPC      H11B            6.9348975976      -10.4685530099       17.8031250716  MEMB      3               0.0000000000
       796        31  DOPC      P               5.2262098368      -13.2411877855       18.7698348557  MEMB      3               0.0000000000
       797        31  DOPC      O13             3.8396787357      -12.7078096844       18.7459851472  MEMB      3               0.0000000000
       798        31  DOPC      O14             5.4729584295      -14.2259616078       19.8443941479  MEMB      3               0.0000000000
       799        31  DOPC      O12             6.2445716326      -12.0319955488       18.9775012105  MEMB      3               0.0000000000
       800        31  DOPC      O11             5.7125995880      -13.8363542851       17.3820561694  MEMB      3               0.0000000000
       801        31  DOPC      C1              7.0487070233      -13.7588594489       16.8716968517  MEMB      3               0.0000000000
       802        31  DOPC      HA              7.4851159179      -14.7834029465       16.8966712494  MEMB      3               0.0000000000
       803        31  DOPC      HB              7.7160573725      -13.0898477738       17.4621455454  MEMB      3               0.0000000000
       804        31  DOPC      C2              7.1097026429      -13.2776643055       15.3861941425  MEMB      3               0.0000000000
       805        31  DOPC      HS              7.0671693486      -12.1633172687       15.3602087300  MEMB      3               0.0000000000
       806        31  DOPC      O21             6.0364014355      -13.8549175661       14.6285640089  MEMB      3               0.0000000000
       807        31  DOPC      C21             4.9065221232      -13.1477826193       14.6597664119  MEMB      3               0.0000000000
       808        31  DOPC      O22             4.7688160825      -12.0443352486       15.1612432163  MEMB      3               0.0000000000
       809        31  DOPC      C22             3.8432711553      -13.8999595136       13.8601903912  MEMB      3               0.0000000000
       810        31  DOPC      H2R             2.9921773380      -14.1312296452       14.5258523527  MEMB      3               0.0000000000
       811        31  DOPC      H2S             4.3230900939      -14.8602128611       13.5744556494  MEMB      3               0.0000000000
       812        31  DOPC      C3              8.4521442536      -13.6813075846       14.7191208513  MEMB      3               0.0000000000
       813        31  DOPC      HX              8.6774182633      -14.7252718097       15.0326046704  MEMB      3               0.0000000000
       814        31  DOPC      HY              9.2720608342      -13.0363186483       15.1118548543  MEMB      3               0.0000000000
       815        31  DOPC      O31             8.3470833394      -13.6800898347       13.2820455143  MEMB      3               0.0000000000
       816        31  DOPC      C31             8.8883799798      -12.6765944936       12.6271535169  MEMB      3               0.0000000000
       817        31  DOPC      O32             9.4621460921      -11.7234274801       13.1213920411  MEMB      3               0.0000000000
       818        31  DOPC      C32             8.7975052415      -12.9858522782       11.1255591297  MEMB      3               0.0000000000
       819        31  DOPC      H2X             9.8196881503      -13.2531748284       10.7879998934  MEMB      3               0.0000000000
       820        31  DOPC      H2Y             8.1403431449      -13.8637945595       10.9648131063  MEMB      3               0.0000000000
       821        31  DOPC      C23             3.3971053998      -13.2126231057       12.5348611041  MEMB      3               0.0000000000
       822        31  DOPC      H3R             3.4704573610      -14.0212509353       11.7766275628  MEMB      3               0.0000000000
       823        31  DOPC      H3S             4.1083243658      -12.4093674640       12.2560835278  MEMB      3               0.0000000000
       824        31  DOPC      C24             1.9667526226      -12.6398331736       12.4927331444  MEMB      3               0.0000000000
       825        31  DOPC      H4R             1.9842052683      -11.5817670995       12.8360577857  MEMB      3               0.0000000000
       826        31  DOPC      H4S             1.3580362073      -13.1885145545       13.2477292531  MEMB      3               0.0000000000
       827        31  DOPC      C25             1.1955905151      -12.7518987931       11.1417643577  MEMB      3               0.0000000000
       828        31  DOPC      H5R             0.6227755571      -11.8102998715       10.9834647731  MEMB      3               0.0000000000
       829        31  DOPC      H5S             0.4363260255      -13.5566149116       11.2787900329  MEMB      3               0.0000000000
       830        31  DOPC      C26             1.9470847119      -13.0867218668        9.8289640405  MEMB      3               0.0000000000
       831        31  DOPC      H6R             2.7200375115      -13.8675802174        9.9780582736  MEMB      3               0.0000000000
       832        31  DOPC      H6S             2.4534607433      -12.1798385426        9.4291508710  MEMB      3               0.0000000000
       833        31  DOPC      C27             0.9931683550      -13.6533031363        8.7497469686  MEMB      3               0.0000000000
       834        31  DOPC      H7R             0.4148185332      -12.8077930259        8.3184393948  MEMB      3               0.0000000000
       835        31  DOPC      H7S             0.2693846108      -14.3473108810        9.2377055541  MEMB      3               0.0000000000
       836        31  DOPC      C28             1.7077553427      -14.4765112558        7.6536492541  MEMB      3               0.0000000000
       837        31  DOPC      H8R             1.8507924810      -15.5018848984        8.0544427311  MEMB      3               0.0000000000
       838        31  DOPC      H8S             2.7190038099      -14.0541876481        7.4644962014  MEMB      3               0.0000000000
       839        31  DOPC      C29             0.9246080841      -14.5137522493        6.3681126363  MEMB      3               0.0000000000
       840        31  DOPC      H9R             0.1890420614      -13.7060459795        6.2679092918  MEMB      3               0.0000000000
       841        31  DOPC      C210            1.0197434440      -15.4164073184        5.3747985262  MEMB      3               0.0000000000
       842        31  DOPC      H10R            0.3888749016      -15.2803093217        4.4883413660  MEMB      3               0.0000000000
       843        31  DOPC      C211            1.9270365029      -16.6167945691        5.2917362797  MEMB      3               0.0000000000
       844        31  DOPC      H11R            1.3346460291      -17.4897990765        4.9290904853  MEMB      3               0.0000000000
       845        31  DOPC      H11S            2.2841525716      -16.9050947543        6.2983452662  MEMB      3               0.0000000000
       846        31  DOPC      C212            3.1528481598      -16.4909093767        4.3480593935  MEMB      3               0.0000000000
       847        31  DOPC      H12R            2.8596618227      -16.8999073983        3.3638728822  MEMB      3               0.0000000000
       848        31  DOPC      H12S            3.9665145108      -17.1458409267        4.7235008938  MEMB      3               0.0000000000
       849        31  DOPC      C213            3.7481233911      -15.0891747051        4.1565233669  MEMB      3               0.0000000000
       850        31  DOPC      H13R            4.2026240181      -14.7859730476        5.1271300952  MEMB      3               0.0000000000
       851        31  DOPC      H13S            2.9488766601      -14.3551704297        3.9137145991  MEMB      3               0.0000000000
       852        31  DOPC      C214            4.8174041766      -14.9974308201        3.0461241634  MEMB      3               0.0000000000
       853        31  DOPC      H14R            4.2988883881      -14.8231281882        2.0756113509  MEMB      3               0.0000000000
       854        31  DOPC      H14S            5.3915989511      -15.9468789177        2.9668157796  MEMB      3               0.0000000000
       855        31  DOPC      C215            5.7664120107      -13.8245797873        3.3420150646  MEMB      3               0.0000000000
       856        31  DOPC      H15R            6.3502584102      -14.0576068211        4.2492434568  MEMB      3               0.0000000000
       857        31  DOPC      H15S            5.1031989300      -12.9775067918        3.6114238851  MEMB      3               0.0000000000
       858        31  DOPC      C216            6.7367789969      -13.4106383141        2.2226177335  MEMB      3               0.0000000000
       859        31  DOPC      H16R            6.2021799233      -13.4410417360        1.2515381396  MEMB      3               0.0000000000
       860        31  DOPC      H16S            7.5850739350      -14.1183074260        2.1696600767  MEMB      3               0.0000000000
       861        31  DOPC      C217            7.3388775337      -12.0071231891        2.3936532059  MEMB      3               0.0000000000
       862        31  DOPC      H17R            8.0092931612      -11.7811946643        1.5351288942  MEMB      3               0.0000000000
       863        31  DOPC      H17S            7.9638786660      -11.9800442363        3.3145767981  MEMB      3               0.0000000000
       864        31  DOPC      C218            6.2737369843      -10.9325089181        2.5167282302  MEMB      3               0.0000000000
       865        31  DOPC      H18R            5.4613228942      -11.0693705938        1.7709552128  MEMB      3               0.0000000000
       866        31  DOPC      H18S            6.6862646104       -9.9055219157        2.4584849167  MEMB      3               0.0000000000
       867        31  DOPC      H18T            5.8284315751      -11.0633543553        3.5088275625  MEMB      3               0.0000000000
       868        31  DOPC      C33             8.2830304314      -11.7914561831       10.3016818597  MEMB      3               0.0000000000
       869        31  DOPC      H3X             8.4147860481      -12.0029696164        9.2161408196  MEMB      3               0.0000000000
       870        31  DOPC      H3Y             8.9074068376      -10.8977613378       10.5333967764  MEMB      3               0.0000000000
       871        31  DOPC      C34             6.8094591036      -11.4623743020       10.5835092131  MEMB      3               0.0000000000
       872        31  DOPC      H4X             6.5663986345      -10.5080603401       10.0643033556  MEMB      3               0.0000000000
       873        31  DOPC      H4Y             6.6869232682      -11.2681733548       11.6735905821  MEMB      3               0.0000000000
       874        31  DOPC      C35             5.7812701524      -12.5354567703       10.1681525319  MEMB      3               0.0000000000
       875        31  DOPC      H5X             4.7754111940      -12.1048070758       10.3838237489  MEMB      3               0.0000000000
       876        31  DOPC      H5Y             5.8940434724      -13.4570225372       10.7778179033  MEMB      3               0.0000000000
       877        31  DOPC      C36             5.7460770519      -12.8820223570        8.6757546732  MEMB      3               0.0000000000
       878        31  DOPC      H6X             6.6960848639      -13.3606984289        8.3558630369  MEMB      3               0.0000000000
       879        31  DOPC      H6Y             4.9249133351      -13.6146334358        8.5085812811  MEMB      3               0.0000000000
       880        31  DOPC      C37             5.4611079544      -11.6163208339        7.8666957189  MEMB      3               0.0000000000
       881        31  DOPC      H7X             4.6806612525      -11.0276833954        8.4067510607  MEMB      3               0.0000000000
       882        31  DOPC      H7Y             6.3942494878      -11.0082217343        7.8443580585  MEMB      3               0.0000000000
       883        31  DOPC      C38             4.9459344813      -11.8613288410        6.4471215686  MEMB      3               0.0000000000
       884        31  DOPC      H8X             3.9396883342      -12.3335640333        6.4978506306  MEMB      3               0.0000000000
       885        31  DOPC      H8Y             5.6182627767      -12.5769146758        5.9261115965  MEMB      3               0.0000000000
       886        31  DOPC      C39             4.9216893225      -10.5324753570        5.7366878166  MEMB      3               0.0000000000
       887        31  DOPC      H9X             5.8018604845       -9.8960906273        5.9177655912  MEMB      3               0.0000000000
       888        31  DOPC      C310            3.9810597650      -10.1156032831        4.8723644533  MEMB      3               0.0000000000
       889        31  DOPC      H10X            4.1190925454       -9.1465113510        4.3640379260  MEMB      3               0.0000000000
       890        31  DOPC      C311            2.7842757653      -10.9376863642        4.4773133631  MEMB      3               0.0000000000
       891        31  DOPC      H11X            2.3398254622      -11.4182609879        5.3759099741  MEMB      3               0.0000000000
       892        31  DOPC      H11Y            3.1485049055      -11.7534602432        3.8124677549  MEMB      3               0.0000000000
       893        31  DOPC      C312            1.6362203055      -10.2439728960        3.7199855092  MEMB      3               0.0000000000
       894        31  DOPC      H12X            2.0555782326       -9.6936701998        2.8494730941  MEMB      3               0.0000000000
       895        31  DOPC      H12Y            1.1067468847       -9.4970494235        4.3524279086  MEMB      3               0.0000000000
       896        31  DOPC      C313            0.6246419333      -11.2850195689        3.2106696585  MEMB      3               0.0000000000
       897        31  DOPC      H13X            1.1063961493      -12.2781994779        3.0819558981  MEMB      3               0.0000000000
       898        31  DOPC      H13Y           -0.1595001250      -11.4016702208        3.9951203064  MEMB      3               0.0000000000
       899        31  DOPC      C314           -0.0366454365      -10.8861794055        1.8872359885  MEMB      3               0.0000000000
       900        31  DOPC      H14X           -1.0575127082      -11.3241764394        1.8680146927  MEMB      3               0.0000000000
       901        31  DOPC      H14Y           -0.1153873693       -9.7746333574        1.8554965411  MEMB      3               0.0000000000
       902        31  DOPC      C315            0.5715943909      -11.3847554373        0.5875631644  MEMB      3               0.0000000000
       903        31  DOPC      H15X           -0.0009394750      -10.9129116759       -0.2479676588  MEMB      3               0.0000000000
       904        31  DOPC      H15Y            0.4429405844      -12.4690065733        0.4545967764  MEMB      3               0.0000000000
       905        31  DOPC      C316            2.0369988810      -11.0492732483        0.4475187334  MEMB      3               0.0000000000
       906        31  DOPC      H16X            2.6122963549      -11.2033509407        1.3820317307  MEMB      3               0.0000000000
       907        31  DOPC      H16Y            2.4521795979      -11.7862925537       -0.2605168670  MEMB      3               0.0000000000
       908        31  DOPC      C317            2.1326648862       -9.6169359396       -0.0637673938  MEMB      3               0.0000000000
       909        31  DOPC      H17X            1.3587323234       -9.4742505377       -0.8583770016  MEMB      3               0.0000000000
       910        31  DOPC      H17Y            1.8771536635       -8.9184016217        0.7602755606  MEMB      3               0.0000000000
       911        31  DOPC      C318            3.4686776808       -9.2628770492       -0.6793292414  MEMB      3               0.0000000000
       912        31  DOPC      H18X            3.5160619191       -8.1954519785       -0.8882631813  MEMB      3               0.0000000000
       913        31  DOPC      H18Y            4.3415957391       -9.5352255374       -0.0542221924  MEMB      3               0.0000000000
       914        31  DOPC      H18Z            3.5453105085       -9.7484078682       -1.6651342577  MEMB      3               0.0000000000
       915        32  DOPC      N              11.8667331949       -3.7836551731       19.8168006363  MEMB      4               0.0000000000
       916        32  DOPC      C12            10.8984036859       -4.7816951257       20.4428345121  MEMB      4               0.0000000000
       917        32  DOPC      H12A           10.9377375031       -4.7166589766       21.5256742396  MEMB      4               0.0000000000
       918        32  DOPC      H12B           11.1993554227       -5.7859212735       20.1812194134  MEMB      4               0.0000000000
       919        32  DOPC      C13            11.4600614221       -2.3668189207       20.1069767894  MEMB      4               0.0000000000
       920        32  DOPC      H13A           11.4172881804       -2.1815075358       21.1801386372  MEMB      4               0.0000000000
       921        32  DOPC      H13B           12.1390326792       -1.6339863539       19.6746531613  MEMB      4               0.0000000000
       922        32  DOPC      H13C           10.4615669276       -2.2079148888       19.7048657088  MEMB      4               0.0000000000
       923        32  DOPC      C14            11.8675351116       -3.9922082116       18.3368162040  MEMB      4               0.0000000000
       924        32  DOPC      H14A           12.2961556751       -3.1529232611       17.7979162862  MEMB      4               0.0000000000
       925        32  DOPC      H14B           12.3871923738       -4.9005498807       18.0859041176  MEMB      4               0.0000000000
       926        32  DOPC      H14C           10.8281225163       -4.1490530272       18.0318668907  MEMB      4               0.0000000000
       927        32  DOPC      C15            13.2079970957       -3.9701668350       20.4108929064  MEMB      4               0.0000000000
       928        32  DOPC      H15A           13.5092705007       -5.0061266001       20.3562218805  MEMB      4               0.0000000000
       929        32  DOPC      H15B           13.1516682856       -3.6781558429       21.4569593459  MEMB      4               0.0000000000
       930        32  DOPC      H15C           13.9212449636       -3.3202897688       19.9216341486  MEMB      4               0.0000000000
       931        32  DOPC      C11             9.4068026417       -4.6713317248       20.0767549420  MEMB      4               0.0000000000
       932        32  DOPC      H11A            8.8391550972       -5.3201054081       20.7840032594  MEMB      4               0.0000000000
       933        32  DOPC      H11B            9.0996567539       -3.6171546579       20.2696465642  MEMB      4               0.0000000000
       934        32  DOPC      P               7.6306546376       -4.6823758630       18.3154378287  MEMB      4               0.0000000000
       935        32  DOPC      O13             6.7332811214       -4.8776705855       19.4852408931  MEMB      4               0.0000000000
       936        32  DOPC      O14             7.2910567739       -5.3709421069       17.0572914785  MEMB      4               0.0000000000
       937        32  DOPC      O12             9.1219645488       -5.0743026337       18.7304921318  MEMB      4               0.0000000000
       938        32  DOPC      O11             7.8510927427       -3.1180619080       18.1744606490  MEMB      4               0.0000000000
       939        32  DOPC      C1              8.8270191180       -2.5475532672       17.3153078510  MEMB      4               0.0000000000
       940        32  DOPC      HA              9.4834521284       -3.3161918345       16.8413442872  MEMB      4               0.0000000000
       941        32  DOPC      HB              9.4709321085       -1.8351568853       17.8762484432  MEMB      4               0.0000000000
       942        32  DOPC      C2              8.0907204184       -1.8098276577       16.1940678172  MEMB      4               0.0000000000
       943        32  DOPC      HS              7.5406328278       -0.9550937464       16.6566675750  MEMB      4               0.0000000000
       944        32  DOPC      O21             7.1958921739       -2.7590018955       15.6226661290  MEMB      4               0.0000000000
       945        32  DOPC      C21             6.1536308581       -2.2709430822       15.0198553257  MEMB      4               0.0000000000
       946        32  DOPC      O22             5.8271963510       -1.0965254459       14.9769328542  MEMB      4               0.0000000000
       947        32  DOPC      C22             5.4768067332       -3.4240624067       14.3003703718  MEMB      4               0.0000000000
       948        32  DOPC      H2R             4.5812920317       -3.0066977842       13.7941810356  MEMB      4               0.0000000000
       949        32  DOPC      H2S             5.1492631960       -4.1679372979       15.0559316237  MEMB      4               0.0000000000
       950        32  DOPC      C3              9.0569972311       -1.2978365387       15.1062795429  MEMB      4               0.0000000000
       951        32  DOPC      HX              9.7389319939       -0.5400416156       15.5537401032  MEMB      4               0.0000000000
       952        32  DOPC      HY              8.4290261607       -0.7990644927       14.3245876840  MEMB      4               0.0000000000
       953        32  DOPC      O31             9.8153350710       -2.4149956988       14.5801011327  MEMB      4               0.0000000000
       954        32  DOPC      C31            10.3353334149       -2.1626324804       13.3960579893  MEMB      4               0.0000000000
       955        32  DOPC      O32            10.3352839501       -1.0723975371       12.8518021229  MEMB      4               0.0000000000
       956        32  DOPC      C32            11.0001854727       -3.3825764863       12.7525814767  MEMB      4               0.0000000000
       957        32  DOPC      H2X            10.3646789498       -3.6892590586       11.8988281568  MEMB      4               0.0000000000
       958        32  DOPC      H2Y            11.9673505050       -3.0155720446       12.3463140506  MEMB      4               0.0000000000
       959        32  DOPC      C23             6.4639746960       -4.0744054535       13.2969427397  MEMB      4               0.0000000000
       960        32  DOPC      H3R             6.7390369051       -5.0903319667       13.6572529259  MEMB      4               0.0000000000
       961        32  DOPC      H3S             7.4125108972       -3.4903730210       13.2183612423  MEMB      4               0.0000000000
       962        32  DOPC      C24             5.8867627817       -4.1167387274       11.8855104831  MEMB      4               0.0000000000
       963        32  DOPC      H4R             4.9098309895       -4.6405200386       11.9485132827  MEMB      4               0.0000000000
       964        32  DOPC      H4S             6.5158044429       -4.7515039871       11.2316187310  MEMB      4               0.0000000000
       965        32  DOPC      C25             5.6805999022       -2.6884743900       11.3394477683  MEMB      4               0.0000000000
       966        32  DOPC      H5R             5.5796436035       -1.9558391901       12.1712886840  MEMB      4               0.0000000000
       967        32  DOPC      H5S             4.6953080661       -2.6313629300       10.8272823746  MEMB      4               0.0000000000
       968        32  DOPC      C26             6.7234374801       -2.1260781702       10.3604902002  MEMB      4               0.0000000000
       969        32  DOPC      H6R             7.1991697924       -1.2423248521       10.8477865591  MEMB      4               0.0000000000
       970        32  DOPC      H6S             6.1740239759       -1.7604144663        9.4624910268  MEMB      4               0.0000000000
       971        32  DOPC      C27             7.8143892593       -3.0945747610        9.9211975638  MEMB      4               0.0000000000
       972        32  DOPC      H7R             7.3714339033       -3.9387304293        9.3450930844  MEMB      4               0.0000000000
       973        32  DOPC      H7S             8.2599622607       -3.5141531251       10.8538614860  MEMB      4               0.0000000000
       974        32  DOPC      C28             8.9090828648       -2.4154384033        9.0906063211  MEMB      4               0.0000000000
       975        32  DOPC      H8R             9.2011348059       -1.4551841459        9.5718515660  MEMB      4               0.0000000000
       976        32  DOPC      H8S             8.5131830994       -2.1789363065        8.0777569110  MEMB      4               0.0000000000
       977        32  DOPC      C29            10.0756408745       -3.3632356866        9.0634470059  MEMB      4               0.0000000000
       978        32  DOPC      H9R            10.7765074825       -3.2584494970        9.9035751761  MEMB      4               0.0000000000
       979        32  DOPC      C210           10.3272566728       -4.2911839413        8.1326267494  MEMB      4               0.0000000000
       980        32  DOPC      H10R           11.1619791083       -4.9845811988        8.2901679378  MEMB      4               0.0000000000
       981        32  DOPC      C211            9.5188977732       -4.5998459154        6.9086046745  MEMB      4               0.0000000000
       982        32  DOPC      H11R            8.4587534659       -4.2755861447        7.0000716963  MEMB      4               0.0000000000
       983        32  DOPC      H11S            9.5181998459       -5.6939399223        6.7297552033  MEMB      4               0.0000000000
       984        32  DOPC      C212           10.1457219072       -3.9545313580        5.6736168807  MEMB      4               0.0000000000
       985        32  DOPC      H12R            9.7571333096       -4.4966756864        4.7907324985  MEMB      4               0.0000000000
       986        32  DOPC      H12S           11.2521944689       -4.0733355640        5.6626777719  MEMB      4               0.0000000000
       987        32  DOPC      C213            9.7543916638       -2.4856867327        5.5530170416  MEMB      4               0.0000000000
       988        32  DOPC      H13R           10.1021286544       -1.9381332102        6.4586178323  MEMB      4               0.0000000000
       989        32  DOPC      H13S            8.6475575771       -2.3965412858        5.4899841095  MEMB      4               0.0000000000
       990        32  DOPC      C214           10.3682984312       -1.8036137971        4.3409126272  MEMB      4               0.0000000000
       991        32  DOPC      H14R           11.4640706881       -1.9804044756        4.3518520500  MEMB      4               0.0000000000
       992        32  DOPC      H14S           10.2075725840       -0.7232975878        4.5038314118  MEMB      4               0.0000000000
       993        32  DOPC      C215            9.7499710963       -2.2185691669        2.9982621658  MEMB      4               0.0000000000
       994        32  DOPC      H15R            9.4184535178       -3.2749583038        3.0467264334  MEMB      4               0.0000000000
       995        32  DOPC      H15S           10.5438662970       -2.1690546958        2.2209839523  MEMB      4               0.0000000000
       996        32  DOPC      C216            8.5670273763       -1.3227554622        2.5824750611  MEMB      4               0.0000000000
       997        32  DOPC      H16R            8.4714171555       -0.4959499724        3.3216050117  MEMB      4               0.0000000000
       998        32  DOPC      H16S            7.6289484599       -1.9125943754        2.6287864589  MEMB      4               0.0000000000
       999        32  DOPC      C217            8.7438243712       -0.6848228546        1.1972020223  MEMB      4               0.0000000000
      1000        32  DOPC      H17R            8.5067813637       -1.4238959044        0.4020785620  MEMB      4               0.0000000000
      1001        32  DOPC      H17S            9.8176033905       -0.4344731116        1.0969180636  MEMB      4               0.0000000000
      1002        32  DOPC      C218            7.9718324253        0.6194536087        0.9824496689  MEMB      4               0.0000000000
      1003        32  DOPC      H18R            6.8801060456        0.4675934806        0.9760853620  MEMB      4               0.0000000000
      1004        32  DOPC      H18S            8.2261248762        1.0659275485        0.0021019192  MEMB      4               0.0000000000
      1005        32  DOPC      H18T            8.2303889334        1.3539040920        1.7755269862  MEMB      4               0.0000000000
      1006        32  DOPC      C33            11.2505862235       -4.6049608647       13.6593013381  MEMB      4               0.0000000000
      1007        32  DOPC      H3X            11.4992490066       -4.2800410093       14.6946069381  MEMB      4               0.0000000000
      1008        32  DOPC      H3Y            12.1344186180       -5.1638839935       13.2711665019  MEMB      4               0.0000000000
      1009        32  DOPC      C34            10.0557791275       -5.5693795201       13.6760949472  MEMB      4               0.0000000000
      1010        32  DOPC      H4X             9.1072879406       -5.0312846462       13.4708675814  MEMB      4               0.0000000000
      1011        32  DOPC      H4Y             9.9707025015       -5.9692421498       14.7159978948  MEMB      4               0.0000000000
      1012        32  DOPC      C35            10.1997066919       -6.7864410126       12.7398200309  MEMB      4               0.0000000000
      1013        32  DOPC      H5X             9.4474702326       -7.5377342002       13.0799854463  MEMB      4               0.0000000000
      1014        32  DOPC      H5Y            11.2049786641       -7.2443055062       12.8785715521  MEMB      4               0.0000000000
      1015        32  DOPC      C36             9.9511574455       -6.5541070936       11.2355561852  MEMB      4               0.0000000000
      1016        32  DOPC      H6X             8.9426639709       -6.1073136085       11.0869537800  MEMB      4               0.0000000000
      1017        32  DOPC      H6Y            10.7015062616       -5.8394405246       10.8343614513  MEMB      4               0.0000000000
      1018        32  DOPC      C37            10.0487194392       -7.9002602237       10.4846729450  MEMB      4               0.0000000000
      1019        32  DOPC      H7X            11.0270458297       -8.3586626212       10.7632159148  MEMB      4               0.0000000000
      1020        32  DOPC      H7Y             9.2486065331       -8.5783849306       10.8572895657  MEMB      4               0.0000000000
      1021        32  DOPC      C38            10.0017955844       -7.8412201824        8.9434841553  MEMB      4               0.0000000000
      1022        32  DOPC      H8X            10.3297523329       -8.8401741300        8.5744936389  MEMB      4               0.0000000000
      1023        32  DOPC      H8Y            10.7736633813       -7.1201594091        8.5959098622  MEMB      4               0.0000000000
      1024        32  DOPC      C39             8.6481662050       -7.4863616663        8.3765218388  MEMB      4               0.0000000000
      1025        32  DOPC      H9X             8.1550453143       -6.6219175952        8.8504962062  MEMB      4               0.0000000000
      1026        32  DOPC      C310            8.0572637577       -8.0697491331        7.3135055759  MEMB      4               0.0000000000
      1027        32  DOPC      H10X            7.0882876823       -7.6763710110        6.9634579312  MEMB      4               0.0000000000
      1028        32  DOPC      C311            8.6371517522       -9.1932015795        6.4854187077  MEMB      4               0.0000000000
      1029        32  DOPC      H11X            7.8539820064       -9.6571691539        5.8483493172  MEMB      4               0.0000000000
      1030        32  DOPC      H11Y            9.0116691160      -10.0018764067        7.1542214603  MEMB      4               0.0000000000
      1031        32  DOPC      C312            9.8004292435       -8.7579608637        5.5709892813  MEMB      4               0.0000000000
      1032        32  DOPC      H12X           10.2315826869       -9.6643020515        5.0866486421  MEMB      4               0.0000000000
      1033        32  DOPC      H12Y           10.6060278577       -8.3052845422        6.1915869256  MEMB      4               0.0000000000
      1034        32  DOPC      C313            9.4025050204       -7.7641580981        4.4671131058  MEMB      4               0.0000000000
      1035        32  DOPC      H13X            8.7366685605       -8.2700116943        3.7328298237  MEMB      4               0.0000000000
      1036        32  DOPC      H13Y            8.8352973451       -6.9151553274        4.9081525443  MEMB      4               0.0000000000
      1037        32  DOPC      C314           10.6363867790       -7.2047222468        3.7487476870  MEMB      4               0.0000000000
      1038        32  DOPC      H14X           11.2947390244       -6.7076978436        4.4984841640  MEMB      4               0.0000000000
      1039        32  DOPC      H14Y           11.2089848948       -8.0517148437        3.3061540630  MEMB      4               0.0000000000
      1040        32  DOPC      C315           10.3073633173       -6.2001572836        2.6348383340  MEMB      4               0.0000000000
      1041        32  DOPC      H15X            9.6406513240       -5.3997772353        3.0072525849  MEMB      4               0.0000000000
      1042        32  DOPC      H15Y            9.7381637236       -6.7241899206        1.8374604628  MEMB      4               0.0000000000
      1043        32  DOPC      C316           11.5914373831       -5.5750248890        2.0647627525  MEMB      4               0.0000000000
      1044        32  DOPC      H16X           12.0521922616       -4.9144396537        2.8281167461  MEMB      4               0.0000000000
      1045        32  DOPC      H16Y           12.3185796997       -6.4000429010        1.8875592290  MEMB      4               0.0000000000
      1046        32  DOPC      C317           11.3950473721       -4.8071682845        0.7457206237  MEMB      4               0.0000000000
      1047        32  DOPC      H17X           10.3715603380       -5.0113907632        0.3545810146  MEMB      4               0.0000000000
      1048        32  DOPC      H17Y           11.4618766826       -3.7167627078        0.9556640603  MEMB      4               0.0000000000
      1049        32  DOPC      C318           12.4153079708       -5.1799600011       -0.3380219081  MEMB      4               0.0000000000
      1050        32  DOPC      H18X           12.1544495939       -6.1492355817       -0.8095842301  MEMB      4               0.0000000000
      1051        32  DOPC      H18Y           12.4541916348       -4.4164530831       -1.1419374974  MEMB      4               0.0000000000
      1052        32  DOPC      H18Z           13.4301594116       -5.2950945287        0.0958220347  MEMB      4               0.0000000000
      1053        33  DOPC      N              10.1652722769        5.3114311281       18.0831845459  MEMB      5               0.0000000000
      1054        33  DOPC      C12            10.1004979202        4.0305057593       18.9356479995  MEMB      5               0.0000000000
      1055        33  DOPC      H12A            9.3016531989        3.4005563503       18.5722301950  MEMB      5               0.0000000000
      1056        33  DOPC      H12B            9.8221651646        4.3009511976       19.9451089622  MEMB      5               0.0000000000
      1057        33  DOPC      C13            10.5149666073        4.9600421039       16.6681977723  MEMB      5               0.0000000000
      1058        33  DOPC      H13A            9.6721527417        4.5161162405       16.1437216142  MEMB      5               0.0000000000
      1059        33  DOPC      H13B           10.8177648850        5.8336626824       16.1012034372  MEMB      5               0.0000000000
      1060        33  DOPC      H13C           11.3310628888        4.2429411742       16.6475934938  MEMB      5               0.0000000000
      1061        33  DOPC      C14            11.1848552351        6.2245135725       18.6766897368  MEMB      5               0.0000000000
      1062        33  DOPC      H14A           12.1029157371        5.6601528365       18.8451740095  MEMB      5               0.0000000000
      1063        33  DOPC      H14B           11.4056987401        7.0740418355       18.0459196047  MEMB      5               0.0000000000
      1064        33  DOPC      H14C           10.8807295551        6.5795579822       19.6549316508  MEMB      5               0.0000000000
      1065        33  DOPC      C15             8.8234130546        5.9898829454       18.0778933090  MEMB      5               0.0000000000
      1066        33  DOPC      H15A            8.4916142083        6.1951970890       19.0899214653  MEMB      5               0.0000000000
      1067        33  DOPC      H15B            8.0741836122        5.3588579398       17.6075516163  MEMB      5               0.0000000000
      1068        33  DOPC      H15C            8.8519591535        6.9238252407       17.5305144208  MEMB      5               0.0000000000
      1069        33  DOPC      C11            11.3643172971        3.1272603492       19.0772571502  MEMB      5               0.0000000000
      1070        33  DOPC      H11A           11.0128158050        2.0868408823       19.2840701266  MEMB      5               0.0000000000
      1071        33  DOPC      H11B           11.9139056305        3.0886029890       18.1084828474  MEMB      5               0.0000000000
      1072        33  DOPC      P              13.6301253917        2.8492024450       20.3233328076  MEMB      5               0.0000000000
      1073        33  DOPC      O13            13.4498862794        1.3865191021       20.4330686935  MEMB      5               0.0000000000
      1074        33  DOPC      O14            14.3729178521        3.4540727543       21.4389069182  MEMB      5               0.0000000000
      1075        33  DOPC      O12            12.1934881688        3.5572972538       20.1671923062  MEMB      5               0.0000000000
      1076        33  DOPC      O11            14.3233353156        3.2580626717       18.9524102677  MEMB      5               0.0000000000
      1077        33  DOPC      C1             14.4631642911        4.6096669931       18.4827011830  MEMB      5               0.0000000000
      1078        33  DOPC      HA             15.5136394707        4.9490503343       18.6315156863  MEMB      5               0.0000000000
      1079        33  DOPC      HB             13.8217467405        5.3228077092       19.0423793018  MEMB      5               0.0000000000
      1080        33  DOPC      C2             14.1551504750        4.7046762394       16.9512006026  MEMB      5               0.0000000000
      1081        33  DOPC      HS             13.1678637046        4.2250521592       16.7782572583  MEMB      5               0.0000000000
      1082        33  DOPC      O21            15.1950559462        4.0422792382       16.2303698043  MEMB      5               0.0000000000
      1083        33  DOPC      C21            15.0640847313        2.7466805943       16.0742161727  MEMB      5               0.0000000000
      1084        33  DOPC      O22            14.0901859680        2.0615523837       16.3255985991  MEMB      5               0.0000000000
      1085        33  DOPC      C22            16.3417827392        2.2836702904       15.3844331273  MEMB      5               0.0000000000
      1086        33  DOPC      H2R            16.3242653010        1.1879165652       15.3177768031  MEMB      5               0.0000000000
      1087        33  DOPC      H2S            17.2071333296        2.5723209255       16.0170024997  MEMB      5               0.0000000000
      1088        33  DOPC      C3             14.0601700969        6.1499274870       16.3669271962  MEMB      5               0.0000000000
      1089        33  DOPC      HX             15.0915610620        6.5780243780       16.4147759449  MEMB      5               0.0000000000
      1090        33  DOPC      HY             13.4080003063        6.7651352133       17.0182568743  MEMB      5               0.0000000000
      1091        33  DOPC      O31            13.5267700039        6.1271918301       15.0077145790  MEMB      5               0.0000000000
      1092        33  DOPC      C31            13.8727407315        7.1840059662       14.2569602205  MEMB      5               0.0000000000
      1093        33  DOPC      O32            14.4573202798        8.1619468784       14.6775504124  MEMB      5               0.0000000000
      1094        33  DOPC      C32            13.2776627072        7.0390198552       12.8380883697  MEMB      5               0.0000000000
      1095        33  DOPC      H2X            12.9897238404        5.9835063966       12.6688489696  MEMB      5               0.0000000000
      1096        33  DOPC      H2Y            12.3610785214        7.6632596325       12.8320800781  MEMB      5               0.0000000000
      1097        33  DOPC      C23            16.4789346359        2.9322600705       13.9866233959  MEMB      5               0.0000000000
      1098        33  DOPC      H3R            17.2392715565        2.3718612906       13.3975358958  MEMB      5               0.0000000000
      1099        33  DOPC      H3S            16.8606876485        3.9716938557       14.1189233565  MEMB      5               0.0000000000
      1100        33  DOPC      C24            15.1507471406        3.0110981297       13.2117936210  MEMB      5               0.0000000000
      1101        33  DOPC      H4R            14.3814557450        3.5513928723       13.8065447841  MEMB      5               0.0000000000
      1102        33  DOPC      H4S            14.7632979136        1.9851230751       13.0261117691  MEMB      5               0.0000000000
      1103        33  DOPC      C25            15.2806371683        3.7802233036       11.8954851537  MEMB      5               0.0000000000
      1104        33  DOPC      H5R            16.0297158182        4.5952947694       12.0098102879  MEMB      5               0.0000000000
      1105        33  DOPC      H5S            14.3046825109        4.2538903328       11.6367898143  MEMB      5               0.0000000000
      1106        33  DOPC      C26            15.6552425389        2.8424182598       10.7538511166  MEMB      5               0.0000000000
      1107        33  DOPC      H6R            16.5032123340        2.2018018305       11.0829674965  MEMB      5               0.0000000000
      1108        33  DOPC      H6S            16.0205596749        3.4592911052        9.9060492448  MEMB      5               0.0000000000
      1109        33  DOPC      C27            14.4632419275        1.9495563416       10.3487159984  MEMB      5               0.0000000000
      1110        33  DOPC      H7R            13.6517105302        2.0572296713       11.1067775209  MEMB      5               0.0000000000
      1111        33  DOPC      H7S            14.7755201682        0.8813628802       10.3624042627  MEMB      5               0.0000000000
      1112        33  DOPC      C28            13.8591593873        2.2815768128        8.9787619026  MEMB      5               0.0000000000
      1113        33  DOPC      H8R            13.3854177161        3.2854784332        9.0336941303  MEMB      5               0.0000000000
      1114        33  DOPC      H8S            13.0539576151        1.5525706872        8.7454462537  MEMB      5               0.0000000000
      1115        33  DOPC      C29            14.9495196673        2.2249147273        7.9509253624  MEMB      5               0.0000000000
      1116        33  DOPC      H9R            15.5701619183        1.3171847057        7.9786715389  MEMB      5               0.0000000000
      1117        33  DOPC      C210           15.2485001372        3.1813244942        7.0654172630  MEMB      5               0.0000000000
      1118        33  DOPC      H10R           16.0938590929        2.9924233418        6.3907721601  MEMB      5               0.0000000000
      1119        33  DOPC      C211           14.5922321578        4.5270704813        6.8528638700  MEMB      5               0.0000000000
      1120        33  DOPC      H11R           15.3427019846        5.3444391718        6.8660991836  MEMB      5               0.0000000000
      1121        33  DOPC      H11S           13.8598365782        4.7851801388        7.6482525013  MEMB      5               0.0000000000
      1122        33  DOPC      C212           13.8849122456        4.5844935993        5.4868501390  MEMB      5               0.0000000000
      1123        33  DOPC      H12R           13.8385830561        5.6421691541        5.1378267693  MEMB      5               0.0000000000
      1124        33  DOPC      H12S           12.8374364228        4.2288757576        5.6108588613  MEMB      5               0.0000000000
      1125        33  DOPC      C213           14.5346579167        3.7419078262        4.3827116048  MEMB      5               0.0000000000
      1126        33  DOPC      H13R           13.8364223743        3.7248008491        3.5300169284  MEMB      5               0.0000000000
      1127        33  DOPC      H13S           14.6656295565        2.6791440756        4.6678316713  MEMB      5               0.0000000000
      1128        33  DOPC      C214           15.8678307722        4.2852188219        3.8946902668  MEMB      5               0.0000000000
      1129        33  DOPC      H14R           16.6305624957        4.1020426370        4.6627870435  MEMB      5               0.0000000000
      1130        33  DOPC      H14S           15.7922800051        5.3874883318        3.7529608924  MEMB      5               0.0000000000
      1131        33  DOPC      C215           16.2752218062        3.6068554965        2.5957184805  MEMB      5               0.0000000000
      1132        33  DOPC      H15R           15.3984312593        3.0264143931        2.2161087647  MEMB      5               0.0000000000
      1133        33  DOPC      H15S           17.1068372471        2.8841457641        2.7342106243  MEMB      5               0.0000000000
      1134        33  DOPC      C216           16.5789733685        4.6572304164        1.5446325778  MEMB      5               0.0000000000
      1135        33  DOPC      H16R           17.4785321919        5.2636848919        1.7835470324  MEMB      5               0.0000000000
      1136        33  DOPC      H16S           15.6981629140        5.3454679149        1.5639266809  MEMB      5               0.0000000000
      1137        33  DOPC      C217           16.6559664417        4.0308811115        0.1640583688  MEMB      5               0.0000000000
      1138        33  DOPC      H17R           16.1641401808        3.0323023821        0.2106122720  MEMB      5               0.0000000000
      1139        33  DOPC      H17S           17.7129242744        3.8466898734       -0.1276909987  MEMB      5               0.0000000000
      1140        33  DOPC      C218           15.8826621259        4.8701210763       -0.8454295341  MEMB      5               0.0000000000
      1141        33  DOPC      H18R           15.7296633554        5.8979460797       -0.4501508532  MEMB      5               0.0000000000
      1142        33  DOPC      H18S           14.8803894646        4.4152011915       -1.0033497263  MEMB      5               0.0000000000
      1143        33  DOPC      H18T           16.4159687755        4.9382219652       -1.8141224815  MEMB      5               0.0000000000
      1144        33  DOPC      C33            14.1939015715        7.5253148339       11.6751654598  MEMB      5               0.0000000000
      1145        33  DOPC      H3X            14.9055445570        6.7124856749       11.4066515400  MEMB      5               0.0000000000
      1146        33  DOPC      H3Y            14.8037717064        8.3906731832       12.0258975615  MEMB      5               0.0000000000
      1147        33  DOPC      C34            13.4589473568        7.9982802729       10.3910948728  MEMB      5               0.0000000000
      1148        33  DOPC      H4X            14.2559787723        8.2757940961        9.6602100004  MEMB      5               0.0000000000
      1149        33  DOPC      H4Y            12.8790675560        8.9227882319       10.6006194786  MEMB      5               0.0000000000
      1150        33  DOPC      C35            12.5555317891        6.9496928387        9.7007699451  MEMB      5               0.0000000000
      1151        33  DOPC      H5X            12.9476628968        5.9574123301        9.9970049795  MEMB      5               0.0000000000
      1152        33  DOPC      H5Y            12.6749872649        7.0298581221        8.5946574468  MEMB      5               0.0000000000
      1153        33  DOPC      C36            11.0460145881        7.0895945060       10.0111617057  MEMB      5               0.0000000000
      1154        33  DOPC      H6X            10.9415858224        7.4333570128       11.0626097956  MEMB      5               0.0000000000
      1155        33  DOPC      H6Y            10.6244428202        7.8960736053        9.3659574691  MEMB      5               0.0000000000
      1156        33  DOPC      C37            10.1816287624        5.8131152409        9.8333661509  MEMB      5               0.0000000000
      1157        33  DOPC      H7X             9.1811586755        6.0114541673       10.2843132857  MEMB      5               0.0000000000
      1158        33  DOPC      H7Y            10.0145162789        5.6242814079        8.7497768571  MEMB      5               0.0000000000
      1159        33  DOPC      C38            10.7812561690        4.5398523011       10.4764305247  MEMB      5               0.0000000000
      1160        33  DOPC      H8X            11.0122175781        4.7831659774       11.5368059650  MEMB      5               0.0000000000
      1161        33  DOPC      H8Y            11.7485613887        4.3363634527        9.9772777269  MEMB      5               0.0000000000
      1162        33  DOPC      C39             9.9685827332        3.2679461174       10.4153095314  MEMB      5               0.0000000000
      1163        33  DOPC      H9X             9.5264996010        2.9557011530       11.3731987552  MEMB      5               0.0000000000
      1164        33  DOPC      C310            9.7515187422        2.4863020158        9.3385989645  MEMB      5               0.0000000000
      1165        33  DOPC      H10X            9.1488047800        1.5738380220        9.4684060935  MEMB      5               0.0000000000
      1166        33  DOPC      C311           10.2576335948        2.6840336235        7.9323818691  MEMB      5               0.0000000000
      1167        33  DOPC      H11X           11.1736108562        3.3141914624        7.9225405994  MEMB      5               0.0000000000
      1168        33  DOPC      H11Y            9.4900836850        3.2158813969        7.3272886242  MEMB      5               0.0000000000
      1169        33  DOPC      C312           10.5588416801        1.3430345381        7.2358605913  MEMB      5               0.0000000000
      1170        33  DOPC      H12X            9.6264149600        0.7602544646        7.0589401044  MEMB      5               0.0000000000
      1171        33  DOPC      H12Y           11.2180151237        0.7241146285        7.8873518228  MEMB      5               0.0000000000
      1172        33  DOPC      C313           11.2982370257        1.5070518872        5.9063244092  MEMB      5               0.0000000000
      1173        33  DOPC      H13X           12.1811825583        2.1724053178        6.0505705001  MEMB      5               0.0000000000
      1174        33  DOPC      H13Y           11.6800396924        0.5049498745        5.6055641051  MEMB      5               0.0000000000
      1175        33  DOPC      C314           10.4509228765        2.0416058627        4.7482578219  MEMB      5               0.0000000000
      1176        33  DOPC      H14X            9.3857137177        1.7433192873        4.8661315423  MEMB      5               0.0000000000
      1177        33  DOPC      H14Y           10.4646142687        3.1500206572        4.8050399845  MEMB      5               0.0000000000
      1178        33  DOPC      C315           10.9365837638        1.5500570532        3.3648973701  MEMB      5               0.0000000000
      1179        33  DOPC      H15X           10.4908828695        2.2454234398        2.6336596878  MEMB      5               0.0000000000
      1180        33  DOPC      H15Y           10.4776903320        0.5836546574        3.1027955239  MEMB      5               0.0000000000
      1181        33  DOPC      C316           12.4677161739        1.3911743230        3.1894121371  MEMB      5               0.0000000000
      1182        33  DOPC      H16X           12.8515835421        2.2217872457        2.5824418547  MEMB      5               0.0000000000
      1183        33  DOPC      H16Y           12.9889658864        1.4845044539        4.1582294350  MEMB      5               0.0000000000
      1184        33  DOPC      C317           12.9823222599        0.0817560235        2.5612864618  MEMB      5               0.0000000000
      1185        33  DOPC      H17X           14.0820140130        0.0433240877        2.7540124357  MEMB      5               0.0000000000
      1186        33  DOPC      H17Y           12.5441712271       -0.7955001844        3.0714660080  MEMB      5               0.0000000000
      1187        33  DOPC      C318           12.7744070898       -0.0378666499        1.0540687352  MEMB      5               0.0000000000
      1188        33  DOPC      H18X           13.1380497756        0.8847113307        0.5563819578  MEMB      5               0.0000000000
      1189        33  DOPC      H18Y           13.3286107589       -0.9087037181        0.6453965362  MEMB      5               0.0000000000
      1190        33  DOPC      H18Z           11.7165984915       -0.1722674497        0.7867858901  MEMB      5               0.0000000000
      1191        34  DOPC      N              -9.8831951134       -4.0337886645       18.8700366671  MEMB      6               0.0000000000
      1192        34  DOPC      C12            -9.4364382950       -5.2841895242       18.1454941945  MEMB      6               0.0000000000
      1193        34  DOPC      H12A           -8.5511752666       -5.7143125623       18.6240540177  MEMB      6               0.0000000000
      1194        34  DOPC      H12B           -9.1072409088       -5.0674615625       17.1422922992  MEMB      6               0.0000000000
      1195        34  DOPC      C13            -8.7913460509       -3.0247784344       19.0424563636  MEMB      6               0.0000000000
      1196        34  DOPC      H13A           -9.0671728729       -2.2608097197       19.7669431167  MEMB      6               0.0000000000
      1197        34  DOPC      H13B           -7.8784327207       -3.4879676923       19.4216841429  MEMB      6               0.0000000000
      1198        34  DOPC      H13C           -8.5263637775       -2.5347654053       18.1184622271  MEMB      6               0.0000000000
      1199        34  DOPC      C14           -10.3739876708       -4.4492320314       20.2278814908  MEMB      6               0.0000000000
      1200        34  DOPC      H14A          -10.8329550811       -3.6394667766       20.7774597313  MEMB      6               0.0000000000
      1201        34  DOPC      H14B          -11.0343199058       -5.3126332164       20.1557977821  MEMB      6               0.0000000000
      1202        34  DOPC      H14C           -9.5417900970       -4.7807000188       20.8451429115  MEMB      6               0.0000000000
      1203        34  DOPC      C15           -10.9969257073       -3.3994751732       18.1135823416  MEMB      6               0.0000000000
      1204        34  DOPC      H15A          -11.8068106584       -4.1164942421       18.0087248643  MEMB      6               0.0000000000
      1205        34  DOPC      H15B          -10.6704928224       -3.1002732014       17.1253329337  MEMB      6               0.0000000000
      1206        34  DOPC      H15C          -11.3254034405       -2.5369361034       18.6670065569  MEMB      6               0.0000000000
      1207        34  DOPC      C11           -10.4732615066       -6.4385443533       18.0893643818  MEMB      6               0.0000000000
      1208        34  DOPC      H11A          -11.5050834676       -6.0468197035       17.9641871619  MEMB      6               0.0000000000
      1209        34  DOPC      H11B          -10.3000685356       -7.0646824195       17.1869651906  MEMB      6               0.0000000000
      1210        34  DOPC      P              -9.1406710012       -8.1148388268       19.6364342993  MEMB      6               0.0000000000
      1211        34  DOPC      O13            -9.4510020893       -9.5265816232       19.3073319803  MEMB      6               0.0000000000
      1212        34  DOPC      O14            -8.7624332066       -7.9162746134       21.0520640875  MEMB      6               0.0000000000
      1213        34  DOPC      O12           -10.4103948349       -7.2170370093       19.2827181794  MEMB      6               0.0000000000
      1214        34  DOPC      O11            -8.0156592508       -7.5755963785       18.6349863074  MEMB      6               0.0000000000
      1215        34  DOPC      C1             -7.9258935443       -8.2773972260       17.3767976309  MEMB      6               0.0000000000
      1216        34  DOPC      HA             -8.9202736713       -8.5419081807       16.9414051782  MEMB      6               0.0000000000
      1217        34  DOPC      HB             -7.3768554363       -9.2301349487       17.5490725326  MEMB      6               0.0000000000
      1218        34  DOPC      C2             -7.1575547872       -7.4861580957       16.2750782061  MEMB      6               0.0000000000
      1219        34  DOPC      HS             -6.1337740499       -7.3784327047       16.7098826401  MEMB      6               0.0000000000
      1220        34  DOPC      O21            -7.7777388393       -6.2022389630       15.9863836876  MEMB      6               0.0000000000
      1221        34  DOPC      C21            -6.8761205138       -5.3522613281       15.4754612227  MEMB      6               0.0000000000
      1222        34  DOPC      O22            -5.6742165008       -5.5266736888       15.5204677746  MEMB      6               0.0000000000
      1223        34  DOPC      C22            -7.5644758181       -4.1560665282       14.8189992929  MEMB      6               0.0000000000
      1224        34  DOPC      H2R            -6.8296068281       -3.3246235677       14.7928163899  MEMB      6               0.0000000000
      1225        34  DOPC      H2S            -8.4213152087       -3.8507838968       15.4493135126  MEMB      6               0.0000000000
      1226        34  DOPC      C3             -7.0695589207       -8.3574912466       14.9671333663  MEMB      6               0.0000000000
      1227        34  DOPC      HX             -7.4542528617       -9.3606807505       15.2376065803  MEMB      6               0.0000000000
      1228        34  DOPC      HY             -5.9902490467       -8.4718108883       14.7174900510  MEMB      6               0.0000000000
      1229        34  DOPC      O31            -7.7529307381       -7.8043715477       13.8166371663  MEMB      6               0.0000000000
      1230        34  DOPC      C31            -8.5012438231       -8.6425466108       13.0839312942  MEMB      6               0.0000000000
      1231        34  DOPC      O32            -8.7955953677       -9.7784285797       13.3927838305  MEMB      6               0.0000000000
      1232        34  DOPC      C32            -8.9065481883       -8.0036061592       11.7467381110  MEMB      6               0.0000000000
      1233        34  DOPC      H2X            -9.9116605460       -7.5581934113       11.8913779982  MEMB      6               0.0000000000
      1234        34  DOPC      H2Y            -8.1876860684       -7.1999910489       11.4965932691  MEMB      6               0.0000000000
      1235        34  DOPC      C23            -8.0328426872       -4.4803933165       13.3801235332  MEMB      6               0.0000000000
      1236        34  DOPC      H3R            -8.1871994450       -5.5749135441       13.2588866828  MEMB      6               0.0000000000
      1237        34  DOPC      H3S            -7.2469856819       -4.1830025036       12.6494463379  MEMB      6               0.0000000000
      1238        34  DOPC      C24            -9.3715239926       -3.8191109589       13.0296209266  MEMB      6               0.0000000000
      1239        34  DOPC      H4R            -9.3025700713       -2.7231895332       13.2047923013  MEMB      6               0.0000000000
      1240        34  DOPC      H4S           -10.1528779925       -4.2377142459       13.7037338807  MEMB      6               0.0000000000
      1241        34  DOPC      C25            -9.7902643245       -4.0722816604       11.5741215682  MEMB      6               0.0000000000
      1242        34  DOPC      H5R            -9.6327800436       -5.1465725970       11.3320200391  MEMB      6               0.0000000000
      1243        34  DOPC      H5S            -9.1280553282       -3.4757755747       10.9063639197  MEMB      6               0.0000000000
      1244        34  DOPC      C26           -11.2574639798       -3.7031356233       11.2869969133  MEMB      6               0.0000000000
      1245        34  DOPC      H6R           -11.4533560204       -2.6902796020       11.7020968475  MEMB      6               0.0000000000
      1246        34  DOPC      H6S           -11.9310637078       -4.4209452935       11.8042037073  MEMB      6               0.0000000000
      1247        34  DOPC      C27           -11.5827867805       -3.6890020571        9.7831820833  MEMB      6               0.0000000000
      1248        34  DOPC      H7R           -10.7880896265       -3.1053477739        9.2647288744  MEMB      6               0.0000000000
      1249        34  DOPC      H7S           -12.5471282627       -3.1758562079        9.5812619761  MEMB      6               0.0000000000
      1250        34  DOPC      C28           -11.6637233765       -5.0909208112        9.1640393123  MEMB      6               0.0000000000
      1251        34  DOPC      H8R           -10.8541314956       -5.6997751725        9.6088486756  MEMB      6               0.0000000000
      1252        34  DOPC      H8S           -11.4367112348       -4.9852919445        8.0796253923  MEMB      6               0.0000000000
      1253        34  DOPC      C29           -12.9861384192       -5.7784304122        9.3990537884  MEMB      6               0.0000000000
      1254        34  DOPC      H9R           -13.1499315622       -6.1205848107       10.4317069860  MEMB      6               0.0000000000
      1255        34  DOPC      C210          -13.9423990313       -6.0065329082        8.4808990442  MEMB      6               0.0000000000
      1256        34  DOPC      H10R          -14.8299665333       -6.5900752586        8.7775045753  MEMB      6               0.0000000000
      1257        34  DOPC      C211          -13.8788001361       -5.6170572464        7.0220967838  MEMB      6               0.0000000000
      1258        34  DOPC      H11R          -13.5752621466       -4.5547106304        6.8907993196  MEMB      6               0.0000000000
      1259        34  DOPC      H11S          -14.8871801376       -5.7317682961        6.5624647220  MEMB      6               0.0000000000
      1260        34  DOPC      C212          -12.8998506426       -6.5272285910        6.2575861940  MEMB      6               0.0000000000
      1261        34  DOPC      H12R          -13.1878274788       -7.5443912581        6.5461027407  MEMB      6               0.0000000000
      1262        34  DOPC      H12S          -11.8553172869       -6.4196859443        6.6184150377  MEMB      6               0.0000000000
      1263        34  DOPC      C213          -12.9118043989       -6.3391397034        4.7278611820  MEMB      6               0.0000000000
      1264        34  DOPC      H13R          -12.0557015708       -5.6698102907        4.4851278382  MEMB      6               0.0000000000
      1265        34  DOPC      H13S          -13.8436516206       -5.8282549089        4.4091365556  MEMB      6               0.0000000000
      1266        34  DOPC      C214          -12.7509135273       -7.6231789448        3.8939641712  MEMB      6               0.0000000000
      1267        34  DOPC      H14R          -13.6800812092       -8.2304396009        3.9010789292  MEMB      6               0.0000000000
      1268        34  DOPC      H14S          -11.9504517139       -8.2249523245        4.3746388100  MEMB      6               0.0000000000
      1269        34  DOPC      C215          -12.3039440652       -7.3669040136        2.4477947142  MEMB      6               0.0000000000
      1270        34  DOPC      H15R          -11.6948432587       -8.2233907532        2.0839985310  MEMB      6               0.0000000000
      1271        34  DOPC      H15S          -11.6706199066       -6.4519911122        2.4200877621  MEMB      6               0.0000000000
      1272        34  DOPC      C216          -13.4276422957       -7.1769876276        1.4369558257  MEMB      6               0.0000000000
      1273        34  DOPC      H16R          -14.1273396933       -6.4313183693        1.8654933275  MEMB      6               0.0000000000
      1274        34  DOPC      H16S          -13.9927012768       -8.1239390943        1.2869211403  MEMB      6               0.0000000000
      1275        34  DOPC      C217          -12.8588266193       -6.6713680864        0.1053334759  MEMB      6               0.0000000000
      1276        34  DOPC      H17R          -13.3116283787       -7.2228441321       -0.7470361231  MEMB      6               0.0000000000
      1277        34  DOPC      H17S          -11.7646530888       -6.8864373746        0.0889605917  MEMB      6               0.0000000000
      1278        34  DOPC      C218          -13.0522825250       -5.1686173322       -0.0805920800  MEMB      6               0.0000000000
      1279        34  DOPC      H18R          -13.2212609630       -4.8808476180       -1.1361338149  MEMB      6               0.0000000000
      1280        34  DOPC      H18S          -12.1566011550       -4.6295752831        0.2999143765  MEMB      6               0.0000000000
      1281        34  DOPC      H18T          -13.9366348610       -4.8422000662        0.4996646455  MEMB      6               0.0000000000
      1282        34  DOPC      C33            -8.9726739915       -9.0308066381       10.5759325037  MEMB      6               0.0000000000
      1283        34  DOPC      H3X            -9.4745054665       -9.9657977719       10.9194378262  MEMB      6               0.0000000000
      1284        34  DOPC      H3Y            -7.9434553606       -9.2987048965       10.2576710714  MEMB      6               0.0000000000
      1285        34  DOPC      C34            -9.7401963784       -8.5256585677        9.3420457754  MEMB      6               0.0000000000
      1286        34  DOPC      H4X           -10.7699225961       -8.2517351077        9.6703468961  MEMB      6               0.0000000000
      1287        34  DOPC      H4Y            -9.8449266301       -9.3427282151        8.5940402486  MEMB      6               0.0000000000
      1288        34  DOPC      C35            -9.1006868656       -7.2982021962        8.6715283183  MEMB      6               0.0000000000
      1289        34  DOPC      H5X            -8.8613422204       -6.5443615260        9.4527673734  MEMB      6               0.0000000000
      1290        34  DOPC      H5Y            -9.8578741897       -6.8310598181        8.0026348784  MEMB      6               0.0000000000
      1291        34  DOPC      C36            -7.8253432926       -7.5636311572        7.8547814250  MEMB      6               0.0000000000
      1292        34  DOPC      H6X            -7.4352639798       -6.5702476390        7.5301183136  MEMB      6               0.0000000000
      1293        34  DOPC      H6Y            -7.0556767449       -8.0265682280        8.5052338389  MEMB      6               0.0000000000
      1294        34  DOPC      C37            -8.0219343987       -8.4206888790        6.5907289548  MEMB      6               0.0000000000
      1295        34  DOPC      H7X            -7.0923032439       -8.3501720943        5.9786552359  MEMB      6               0.0000000000
      1296        34  DOPC      H7Y            -8.1561746349       -9.4867163132        6.8776461552  MEMB      6               0.0000000000
      1297        34  DOPC      C38            -9.2292621629       -7.9584410917        5.7592736612  MEMB      6               0.0000000000
      1298        34  DOPC      H8X            -9.1883898529       -6.8487135208        5.6906650056  MEMB      6               0.0000000000
      1299        34  DOPC      H8Y           -10.1611758613       -8.1874557659        6.3205643613  MEMB      6               0.0000000000
      1300        34  DOPC      C39            -9.3430540468       -8.5821002424        4.3994100060  MEMB      6               0.0000000000
      1301        34  DOPC      H9X            -9.7220415871       -9.6163970828        4.3792828670  MEMB      6               0.0000000000
      1302        34  DOPC      C310           -9.0118256228       -7.9943031437        3.2434403450  MEMB      6               0.0000000000
      1303        34  DOPC      H10X           -9.2825916400       -8.5115780039        2.3149073345  MEMB      6               0.0000000000
      1304        34  DOPC      C311           -8.4536304764       -6.6095765105        3.0358599766  MEMB      6               0.0000000000
      1305        34  DOPC      H11X           -8.4650556612       -5.9809441767        3.9523408238  MEMB      6               0.0000000000
      1306        34  DOPC      H11Y           -9.0721134021       -6.0821323091        2.2796000599  MEMB      6               0.0000000000
      1307        34  DOPC      C312           -6.9963056257       -6.7324056125        2.5506771978  MEMB      6               0.0000000000
      1308        34  DOPC      H12X           -6.9399408888       -7.4647367212        1.7168814804  MEMB      6               0.0000000000
      1309        34  DOPC      H12Y           -6.3706233497       -7.1336343257        3.3799696519  MEMB      6               0.0000000000
      1310        34  DOPC      C313           -6.3822002037       -5.4199214175        2.0421636521  MEMB      6               0.0000000000
      1311        34  DOPC      H13X           -6.3888764605       -4.6723782945        2.8649800231  MEMB      6               0.0000000000
      1312        34  DOPC      H13Y           -5.3192184467       -5.6126258813        1.7671206680  MEMB      6               0.0000000000
      1313        34  DOPC      C314           -7.1033980013       -4.8455943801        0.8110125608  MEMB      6               0.0000000000
      1314        34  DOPC      H14X           -8.1558291212       -4.6120830961        1.0732532819  MEMB      6               0.0000000000
      1315        34  DOPC      H14Y           -6.6206777310       -3.8799722504        0.5348551779  MEMB      6               0.0000000000
      1316        34  DOPC      C315           -7.0613751251       -5.7825918460       -0.4102903365  MEMB      6               0.0000000000
      1317        34  DOPC      H15X           -6.3933097933       -6.6475129373       -0.2025992048  MEMB      6               0.0000000000
      1318        34  DOPC      H15Y           -6.6022671936       -5.2266130575       -1.2543042057  MEMB      6               0.0000000000
      1319        34  DOPC      C316           -8.4343703582       -6.2934351270       -0.8757770773  MEMB      6               0.0000000000
      1320        34  DOPC      H16X           -8.2697959711       -6.9997562560       -1.7213101981  MEMB      6               0.0000000000
      1321        34  DOPC      H16Y           -8.9280684357       -6.8607525816       -0.0561215013  MEMB      6               0.0000000000
      1322        34  DOPC      C317           -9.3554524282       -5.1608518123       -1.3501389449  MEMB      6               0.0000000000
      1323        34  DOPC      H17X           -9.8106662111       -4.6671793608       -0.4621464495  MEMB      6               0.0000000000
      1324        34  DOPC      H17Y           -8.7342430845       -4.3987735244       -1.8750512983  MEMB      6               0.0000000000
      1325        34  DOPC      C318          -10.4515298905       -5.6161192587       -2.3121806256  MEMB      6               0.0000000000
      1326        34  DOPC      H18X          -11.1574901141       -4.7822695567       -2.5170225291  MEMB      6               0.0000000000
      1327        34  DOPC      H18Y           -9.9922106886       -5.9336430841       -3.2720115290  MEMB      6               0.0000000000
      1328        34  DOPC      H18Z          -11.0279294865       -6.4717283373       -1.9046121752  MEMB      6               0.0000000000
      1329        35  DOPC      N             -12.0634038224       10.2867981167       20.3317383505  MEMB      7               0.0000000000
      1330        35  DOPC      C12           -10.6398386658       10.6213383459       20.7624959572  MEMB      7               0.0000000000
      1331        35  DOPC      H12A          -10.0677955369        9.7033593310       20.9117421640  MEMB      7               0.0000000000
      1332        35  DOPC      H12B          -10.6567394771       11.1253049715       21.7286546172  MEMB      7               0.0000000000
      1333        35  DOPC      C13           -12.8039716525       11.5663002230       20.0519161837  MEMB      7               0.0000000000
      1334        35  DOPC      H13A          -12.3849021412       12.0277882142       19.1591801229  MEMB      7               0.0000000000
      1335        35  DOPC      H13B          -13.8561677034       11.4100447865       19.8850344839  MEMB      7               0.0000000000
      1336        35  DOPC      H13C          -12.6702887378       12.2904195244       20.8577165284  MEMB      7               0.0000000000
      1337        35  DOPC      C14           -12.7327255704        9.5070493446       21.4176604011  MEMB      7               0.0000000000
      1338        35  DOPC      H14A          -13.7290244420        9.2061102913       21.1163083111  MEMB      7               0.0000000000
      1339        35  DOPC      H14B          -12.1497303683        8.6138610793       21.6479614280  MEMB      7               0.0000000000
      1340        35  DOPC      H14C          -12.7845652190       10.0915741707       22.3289334450  MEMB      7               0.0000000000
      1341        35  DOPC      C15           -11.9885569764        9.4434268934       19.0846626139  MEMB      7               0.0000000000
      1342        35  DOPC      H15A          -11.4031344257        8.5435893755       19.2580256594  MEMB      7               0.0000000000
      1343        35  DOPC      H15B          -11.4233535502        9.9849784869       18.3209275333  MEMB      7               0.0000000000
      1344        35  DOPC      H15C          -12.9450774567        9.1386086562       18.6903703401  MEMB      7               0.0000000000
      1345        35  DOPC      C11            -9.8309367266       11.5254986169       19.8029603244  MEMB      7               0.0000000000
      1346        35  DOPC      H11A          -10.4128507138       12.4246347967       19.5683598621  MEMB      7               0.0000000000
      1347        35  DOPC      H11B           -8.8976405790       11.8721788047       20.3137227140  MEMB      7               0.0000000000
      1348        35  DOPC      P              -8.1836689849       10.2304855352       18.2773128148  MEMB      7               0.0000000000
      1349        35  DOPC      O13            -8.3223591436        9.2425746854       17.1937095768  MEMB      7               0.0000000000
      1350        35  DOPC      O14            -7.5891148157        9.7828165228       19.5615970532  MEMB      7               0.0000000000
      1351        35  DOPC      O12            -9.5890221075       10.8882155349       18.5642150133  MEMB      7               0.0000000000
      1352        35  DOPC      O11            -7.3357051880       11.4662938149       17.7431158265  MEMB      7               0.0000000000
      1353        35  DOPC      C1             -7.9333866554       12.5643251944       17.0461728793  MEMB      7               0.0000000000
      1354        35  DOPC      HA             -7.2979955187       13.4547988907       17.2637548663  MEMB      7               0.0000000000
      1355        35  DOPC      HB             -8.9504336715       12.8293404358       17.4069230344  MEMB      7               0.0000000000
      1356        35  DOPC      C2             -7.9288925391       12.3946847144       15.4913270015  MEMB      7               0.0000000000
      1357        35  DOPC      HS             -7.7515365009       13.4226762924       15.0833931937  MEMB      7               0.0000000000
      1358        35  DOPC      O21            -9.1141481608       11.7947549960       14.9413390546  MEMB      7               0.0000000000
      1359        35  DOPC      C21            -9.9917999522       12.6794864604       14.5279423727  MEMB      7               0.0000000000
      1360        35  DOPC      O22           -10.0976238269       13.8060163391       14.9551161361  MEMB      7               0.0000000000
      1361        35  DOPC      C22           -10.8192396540       12.1173700651       13.3972043084  MEMB      7               0.0000000000
      1362        35  DOPC      H2R           -11.3270973904       11.2040231287       13.7630599447  MEMB      7               0.0000000000
      1363        35  DOPC      H2S           -10.1081031704       11.8447574911       12.5911649194  MEMB      7               0.0000000000
      1364        35  DOPC      C3             -6.7554699112       11.5093019152       15.0297814957  MEMB      7               0.0000000000
      1365        35  DOPC      HX             -6.8679697351       10.5698615502       15.6028111536  MEMB      7               0.0000000000
      1366        35  DOPC      HY             -5.8263678503       12.0313041973       15.3281417986  MEMB      7               0.0000000000
      1367        35  DOPC      O31            -6.7190711625       11.1122497655       13.6453653699  MEMB      7               0.0000000000
      1368        35  DOPC      C31            -6.6976567999       12.0650561038       12.7546266061  MEMB      7               0.0000000000
      1369        35  DOPC      O32            -6.8695752787       13.2543658058       12.9545333755  MEMB      7               0.0000000000
      1370        35  DOPC      C32            -6.2084278386       11.4993726518       11.4210634985  MEMB      7               0.0000000000
      1371        35  DOPC      H2X            -5.1140136315       11.6990796703       11.4211770476  MEMB      7               0.0000000000
      1372        35  DOPC      H2Y            -6.3625181892       10.4059538539       11.3696683767  MEMB      7               0.0000000000
      1373        35  DOPC      C23           -11.8544268755       13.1485405212       12.8887660022  MEMB      7               0.0000000000
      1374        35  DOPC      H3R           -11.3437767878       14.0693621162       12.5257264387  MEMB      7               0.0000000000
      1375        35  DOPC      H3S           -12.5248063276       13.4541406378       13.7248089529  MEMB      7               0.0000000000
      1376        35  DOPC      C24           -12.7132984643       12.5627090420       11.7630888209  MEMB      7               0.0000000000
      1377        35  DOPC      H4R           -13.5453773494       13.2586982418       11.5180627388  MEMB      7               0.0000000000
      1378        35  DOPC      H4S           -13.1652287376       11.6082000984       12.1179026707  MEMB      7               0.0000000000
      1379        35  DOPC      C25           -11.8920713686       12.2914523641       10.5012388196  MEMB      7               0.0000000000
      1380        35  DOPC      H5R           -11.0571726635       11.6046044405       10.7625839513  MEMB      7               0.0000000000
      1381        35  DOPC      H5S           -11.4465590938       13.2513489156       10.1540818467  MEMB      7               0.0000000000
      1382        35  DOPC      C26           -12.7036972764       11.6239846043        9.3799662004  MEMB      7               0.0000000000
      1383        35  DOPC      H6R           -13.4129846307       12.3631790880        8.9501128381  MEMB      7               0.0000000000
      1384        35  DOPC      H6S           -13.2904111519       10.7986179801        9.8392684407  MEMB      7               0.0000000000
      1385        35  DOPC      C27           -11.8524936579       11.0141661659        8.2496991160  MEMB      7               0.0000000000
      1386        35  DOPC      H7R           -10.9984547550       10.4583702857        8.7024153811  MEMB      7               0.0000000000
      1387        35  DOPC      H7S           -11.4482027306       11.8490259814        7.6400818348  MEMB      7               0.0000000000
      1388        35  DOPC      C28           -12.6139057292       10.0623297572        7.3259532218  MEMB      7               0.0000000000
      1389        35  DOPC      H8R           -13.3575005335       10.6700054878        6.7621069018  MEMB      7               0.0000000000
      1390        35  DOPC      H8S           -13.1639094016        9.3561912660        7.9836408783  MEMB      7               0.0000000000
      1391        35  DOPC      C29           -11.7602285138        9.2650891999        6.3764510000  MEMB      7               0.0000000000
      1392        35  DOPC      H9R           -11.7129073003        8.1841740466        6.5829993255  MEMB      7               0.0000000000
      1393        35  DOPC      C210          -11.1103223016        9.7518046448        5.3082624904  MEMB      7               0.0000000000
      1394        35  DOPC      H10R          -10.5391962680        9.0566723208        4.6732495760  MEMB      7               0.0000000000
      1395        35  DOPC      C211          -11.1017841306       11.1858277544        4.8458229867  MEMB      7               0.0000000000
      1396        35  DOPC      H11R          -10.0466352911       11.5099709540        4.7343227367  MEMB      7               0.0000000000
      1397        35  DOPC      H11S          -11.5725143020       11.8872291668        5.5683135485  MEMB      7               0.0000000000
      1398        35  DOPC      C212          -11.8298574582       11.3496355183        3.4986283491  MEMB      7               0.0000000000
      1399        35  DOPC      H12R          -12.9086386314       11.1461347432        3.6211498469  MEMB      7               0.0000000000
      1400        35  DOPC      H12S          -11.4148877886       10.5868281940        2.8087797837  MEMB      7               0.0000000000
      1401        35  DOPC      C213          -11.6407825494       12.7580186829        2.9147511143  MEMB      7               0.0000000000
      1402        35  DOPC      H13R          -10.5896829275       12.9912938383        3.1548213637  MEMB      7               0.0000000000
      1403        35  DOPC      H13S          -12.2725222826       13.5004690518        3.4454959529  MEMB      7               0.0000000000
      1404        35  DOPC      C214          -11.7414271420       12.9104040138        1.3867874079  MEMB      7               0.0000000000
      1405        35  DOPC      H14R          -11.4273971569       13.9434336577        1.1109282142  MEMB      7               0.0000000000
      1406        35  DOPC      H14S          -12.7912478440       12.7789487994        1.0512260477  MEMB      7               0.0000000000
      1407        35  DOPC      C215          -10.8157002117       11.9139920811        0.6812641812  MEMB      7               0.0000000000
      1408        35  DOPC      H15R          -11.2440742144       10.8972400335        0.8157361161  MEMB      7               0.0000000000
      1409        35  DOPC      H15S           -9.8145770068       11.9314892495        1.1719175816  MEMB      7               0.0000000000
      1410        35  DOPC      C216          -10.6082740007       12.1251957112       -0.8170075031  MEMB      7               0.0000000000
      1411        35  DOPC      H16R           -9.9832775149       13.0287202437       -0.9868696584  MEMB      7               0.0000000000
      1412        35  DOPC      H16S          -11.5842815974       12.2812362907       -1.3277126003  MEMB      7               0.0000000000
      1413        35  DOPC      C217           -9.9153905791       10.8946932682       -1.4075622607  MEMB      7               0.0000000000
      1414        35  DOPC      H17R           -9.1715638382       10.4987549461       -0.6754573121  MEMB      7               0.0000000000
      1415        35  DOPC      H17S           -9.3502984880       11.1822996963       -2.3208418258  MEMB      7               0.0000000000
      1416        35  DOPC      C218          -10.9146342245        9.8029082732       -1.7802974354  MEMB      7               0.0000000000
      1417        35  DOPC      H18R          -10.4206090147        9.0575778615       -2.4354342615  MEMB      7               0.0000000000
      1418        35  DOPC      H18S          -11.7719934071       10.2383461793       -2.3365029368  MEMB      7               0.0000000000
      1419        35  DOPC      H18T          -11.3056077377        9.2979244025       -0.8698764275  MEMB      7               0.0000000000
      1420        35  DOPC      C33            -6.8304658881       12.2454160365       10.2226613852  MEMB      7               0.0000000000
      1421        35  DOPC      H3X            -6.0856493533       12.3995695177        9.4232173905  MEMB      7               0.0000000000
      1422        35  DOPC      H3Y            -7.0954886858       13.2632257964       10.5444821043  MEMB      7               0.0000000000
      1423        35  DOPC      C34            -8.0935055061       11.6064925076        9.6510829485  MEMB      7               0.0000000000
      1424        35  DOPC      H4X            -8.6864182134       11.2354247200       10.5242950769  MEMB      7               0.0000000000
      1425        35  DOPC      H4Y            -7.8969566281       10.7281993910        9.0018925463  MEMB      7               0.0000000000
      1426        35  DOPC      C35            -8.9834412715       12.6482009676        8.9521951697  MEMB      7               0.0000000000
      1427        35  DOPC      H5X            -9.0880104101       13.5509169269        9.5727633410  MEMB      7               0.0000000000
      1428        35  DOPC      H5Y            -9.9675112960       12.1941362122        8.9881153884  MEMB      7               0.0000000000
      1429        35  DOPC      C36            -8.7920719332       12.9660540317        7.4588616962  MEMB      7               0.0000000000
      1430        35  DOPC      H6X            -8.1113483990       12.2219329100        6.9927784441  MEMB      7               0.0000000000
      1431        35  DOPC      H6Y            -9.7726883317       12.8648715396        6.9397796772  MEMB      7               0.0000000000
      1432        35  DOPC      C37            -8.3339181875       14.4015892104        7.1564012821  MEMB      7               0.0000000000
      1433        35  DOPC      H7X            -7.3324472841       14.5151017208        7.6162764837  MEMB      7               0.0000000000
      1434        35  DOPC      H7Y            -8.1846805330       14.5272432340        6.0729532995  MEMB      7               0.0000000000
      1435        35  DOPC      C38            -9.2701778899       15.5557259479        7.6086927835  MEMB      7               0.0000000000
      1436        35  DOPC      H8X            -8.6529482639       16.4807690882        7.5732814584  MEMB      7               0.0000000000
      1437        35  DOPC      H8Y            -9.5149516022       15.4072559963        8.6772682569  MEMB      7               0.0000000000
      1438        35  DOPC      C39           -10.5712923922       15.8092924729        6.8824265853  MEMB      7               0.0000000000
      1439        35  DOPC      H9X           -11.4389601851       15.3138046558        7.3417969636  MEMB      7               0.0000000000
      1440        35  DOPC      C310          -10.7702062589       16.5356118343        5.7622876225  MEMB      7               0.0000000000
      1441        35  DOPC      H10X          -11.7955957045       16.6430609605        5.3740889662  MEMB      7               0.0000000000
      1442        35  DOPC      C311           -9.7298649885       17.2681518736        4.9497272279  MEMB      7               0.0000000000
      1443        35  DOPC      H11X           -8.7183234417       17.1580448980        5.3878385773  MEMB      7               0.0000000000
      1444        35  DOPC      H11Y           -9.9649042061       18.3520886938        4.9517089918  MEMB      7               0.0000000000
      1445        35  DOPC      C312           -9.6406381653       16.7793733201        3.4842703327  MEMB      7               0.0000000000
      1446        35  DOPC      H12X           -8.7355461062       17.2153298157        3.0011078381  MEMB      7               0.0000000000
      1447        35  DOPC      H12Y          -10.5212750619       17.1569820880        2.9161808329  MEMB      7               0.0000000000
      1448        35  DOPC      C313           -9.5745588141       15.2479892152        3.3529608038  MEMB      7               0.0000000000
      1449        35  DOPC      H13X          -10.2313892752       14.7687819526        4.1023201734  MEMB      7               0.0000000000
      1450        35  DOPC      H13Y           -9.9810052678       14.9306433784        2.3743044206  MEMB      7               0.0000000000
      1451        35  DOPC      C314           -8.1520277173       14.6852614037        3.4594186045  MEMB      7               0.0000000000
      1452        35  DOPC      H14X           -7.6408586238       14.8667127127        2.4915613579  MEMB      7               0.0000000000
      1453        35  DOPC      H14Y           -7.6184349387       15.2746500313        4.2335263650  MEMB      7               0.0000000000
      1454        35  DOPC      C315           -8.0601601700       13.1895889112        3.8165493462  MEMB      7               0.0000000000
      1455        35  DOPC      H15X           -8.6163626030       12.5705244977        3.0854682240  MEMB      7               0.0000000000
      1456        35  DOPC      H15Y           -8.5339143242       13.0153720513        4.8033388854  MEMB      7               0.0000000000
      1457        35  DOPC      C316           -6.6194005509       12.6785604575        3.8667291382  MEMB      7               0.0000000000
      1458        35  DOPC      H16X           -5.9946831480       13.4072059481        4.4301540632  MEMB      7               0.0000000000
      1459        35  DOPC      H16Y           -6.5833739125       11.7152534263        4.4261377156  MEMB      7               0.0000000000
      1460        35  DOPC      C317           -6.0522977980       12.4477166853        2.4635398746  MEMB      7               0.0000000000
      1461        35  DOPC      H17X           -6.3456135258       11.4251064886        2.1296634166  MEMB      7               0.0000000000
      1462        35  DOPC      H17Y           -6.5044800535       13.1623201904        1.7379611095  MEMB      7               0.0000000000
      1463        35  DOPC      C318           -4.5395088019       12.6018049609        2.4175898270  MEMB      7               0.0000000000
      1464        35  DOPC      H18X           -4.1095969778       11.9981914519        1.5906712158  MEMB      7               0.0000000000
      1465        35  DOPC      H18Y           -4.2623743391       13.6686981202        2.2611373220  MEMB      7               0.0000000000
      1466        35  DOPC      H18Z           -4.0847749573       12.2673906927        3.3759292453  MEMB      7               0.0000000000
      1467        36  DOPC      N              -3.0375364110      -11.3786772392       18.0303191636  MEMB      8               0.0000000000
      1468        36  DOPC      C12            -2.7415812402      -12.0462984310       19.3850771660  MEMB      8               0.0000000000
      1469        36  DOPC      H12A           -1.8821106766      -11.6022062183       19.8531829663  MEMB      8               0.0000000000
      1470        36  DOPC      H12B           -2.4780291132      -13.0867148793       19.2020114301  MEMB      8               0.0000000000
      1471        36  DOPC      C13            -3.7711449267      -10.0815659014       18.1985987256  MEMB      8               0.0000000000
      1472        36  DOPC      H13A           -4.6881400601      -10.2159450489       18.7721010925  MEMB      8               0.0000000000
      1473        36  DOPC      H13B           -3.2110352505       -9.3582449716       18.7756217279  MEMB      8               0.0000000000
      1474        36  DOPC      H13C           -4.0116305294       -9.6298708303       17.2447117358  MEMB      8               0.0000000000
      1475        36  DOPC      C14            -3.9147264717      -12.2835589842       17.2513317090  MEMB      8               0.0000000000
      1476        36  DOPC      H14A           -3.4265841816      -13.1960497986       16.9468709437  MEMB      8               0.0000000000
      1477        36  DOPC      H14B           -4.7488173113      -12.6209907234       17.8761320332  MEMB      8               0.0000000000
      1478        36  DOPC      H14C           -4.3474717778      -11.8250526746       16.3625476489  MEMB      8               0.0000000000
      1479        36  DOPC      C15            -1.7893787155      -11.1055474936       17.2433792346  MEMB      8               0.0000000000
      1480        36  DOPC      H15A           -1.1720785522      -10.3714819964       17.7407851204  MEMB      8               0.0000000000
      1481        36  DOPC      H15B           -2.0412748463      -10.7327036918       16.2537496296  MEMB      8               0.0000000000
      1482        36  DOPC      H15C           -1.1923124306      -12.0018419883       17.1245974664  MEMB      8               0.0000000000
      1483        36  DOPC      C11            -3.8700596876      -12.1784895575       20.4486992424  MEMB      8               0.0000000000
      1484        36  DOPC      H11A           -3.3845953965      -12.3375117629       21.4430134519  MEMB      8               0.0000000000
      1485        36  DOPC      H11B           -4.4784643047      -11.2497357569       20.5293574543  MEMB      8               0.0000000000
      1486        36  DOPC      P              -6.0653872831      -13.6773553665       20.7745210588  MEMB      8               0.0000000000
      1487        36  DOPC      O13            -6.6071646909      -12.5363624935       21.5403438074  MEMB      8               0.0000000000
      1488        36  DOPC      O14            -6.0903694647      -14.9990683447       21.4524687499  MEMB      8               0.0000000000
      1489        36  DOPC      O12            -4.6461868508      -13.3229605073       20.1300000487  MEMB      8               0.0000000000
      1490        36  DOPC      O11            -6.8633606651      -13.8330350332       19.3945732024  MEMB      8               0.0000000000
      1491        36  DOPC      C1             -7.0257881386      -12.7296751740       18.4849832277  MEMB      8               0.0000000000
      1492        36  DOPC      HA             -6.1900016537      -12.0000539256       18.5700504390  MEMB      8               0.0000000000
      1493        36  DOPC      HB             -7.9470389843      -12.1684834344       18.7676063860  MEMB      8               0.0000000000
      1494        36  DOPC      C2             -7.1824746254      -13.1117778063       16.9515076066  MEMB      8               0.0000000000
      1495        36  DOPC      HS             -8.1215894808      -13.7027625390       16.8616356400  MEMB      8               0.0000000000
      1496        36  DOPC      O21            -6.0596855554      -13.8713391265       16.4373715136  MEMB      8               0.0000000000
      1497        36  DOPC      C21            -6.2670760601      -14.4711006771       15.2500106784  MEMB      8               0.0000000000
      1498        36  DOPC      O22            -7.3407976821      -14.6375947921       14.7126123100  MEMB      8               0.0000000000
      1499        36  DOPC      C22            -4.9088578030      -14.7892169897       14.6157366014  MEMB      8               0.0000000000
      1500        36  DOPC      H2R            -4.4501110399      -15.6074930798       15.1811913188  MEMB      8               0.0000000000
      1501        36  DOPC      H2S            -4.2551540543      -13.9030406252       14.7272275303  MEMB      8               0.0000000000
      1502        36  DOPC      C3             -7.3420265821      -11.7799558388       16.1426585302  MEMB      8               0.0000000000
      1503        36  DOPC      HX             -6.5399525082      -11.0865586432       16.4808377540  MEMB      8               0.0000000000
      1504        36  DOPC      HY             -8.3053381253      -11.3230595372       16.4606093922  MEMB      8               0.0000000000
      1505        36  DOPC      O31            -7.3645227236      -11.9163694716       14.7039175513  MEMB      8               0.0000000000
      1506        36  DOPC      C31            -6.2648193092      -11.6225520350       14.0357291037  MEMB      8               0.0000000000
      1507        36  DOPC      O32            -5.1874128942      -11.3399441440       14.5403837726  MEMB      8               0.0000000000
      1508        36  DOPC      C32            -6.5695562179      -11.7366614666       12.5388258647  MEMB      8               0.0000000000
      1509        36  DOPC      H2X            -6.1976422135      -12.6955872522       12.1572102019  MEMB      8               0.0000000000
      1510        36  DOPC      H2Y            -7.6741106158      -11.7471909359       12.4104108155  MEMB      8               0.0000000000
      1511        36  DOPC      C23            -4.9771978013      -15.2111013118       13.1317017313  MEMB      8               0.0000000000
      1512        36  DOPC      H3R            -5.3919522914      -14.3906481625       12.5294146633  MEMB      8               0.0000000000
      1513        36  DOPC      H3S            -5.6436991101      -16.0937572786       12.9993949848  MEMB      8               0.0000000000
      1514        36  DOPC      C24            -3.5878424017      -15.5512421788       12.5979361156  MEMB      8               0.0000000000
      1515        36  DOPC      H4R            -3.3404696454      -16.5406107067       13.0248853776  MEMB      8               0.0000000000
      1516        36  DOPC      H4S            -2.8449313574      -14.8144375198       12.9753654509  MEMB      8               0.0000000000
      1517        36  DOPC      C25            -3.4543308825      -15.6284017661       11.0717557835  MEMB      8               0.0000000000
      1518        36  DOPC      H5R            -4.2308211626      -16.3031863382       10.6554786018  MEMB      8               0.0000000000
      1519        36  DOPC      H5S            -2.4633235124      -16.0869979659       10.8393754721  MEMB      8               0.0000000000
      1520        36  DOPC      C26            -3.4940364042      -14.2531761607       10.4067370504  MEMB      8               0.0000000000
      1521        36  DOPC      H6R            -2.7292978214      -13.6092755927       10.9001404719  MEMB      8               0.0000000000
      1522        36  DOPC      H6S            -4.4925308642      -13.7876956734       10.5597883710  MEMB      8               0.0000000000
      1523        36  DOPC      C27            -3.1765007482      -14.3000841011        8.9063836112  MEMB      8               0.0000000000
      1524        36  DOPC      H7R            -3.9965151217      -14.8391171618        8.3798014687  MEMB      8               0.0000000000
      1525        36  DOPC      H7S            -2.2356729517      -14.8758337301        8.7536785732  MEMB      8               0.0000000000
      1526        36  DOPC      C28            -3.0233183519      -12.8779602108        8.3409074673  MEMB      8               0.0000000000
      1527        36  DOPC      H8R            -2.2046486085      -12.3694323640        8.9013618490  MEMB      8               0.0000000000
      1528        36  DOPC      H8S            -3.9598752103      -12.3367029663        8.5902462845  MEMB      8               0.0000000000
      1529        36  DOPC      C29            -2.7368353793      -12.8371323224        6.8621381077  MEMB      8               0.0000000000
      1530        36  DOPC      H9R            -1.7499365475      -13.2279425852        6.5807870175  MEMB      8               0.0000000000
      1531        36  DOPC      C210           -3.5415162701      -12.3715312341        5.8862605990  MEMB      8               0.0000000000
      1532        36  DOPC      H10R           -3.1562299793      -12.3485256940        4.8567218280  MEMB      8               0.0000000000
      1533        36  DOPC      C211           -4.9215668064      -11.7771605628        6.0264017628  MEMB      8               0.0000000000
      1534        36  DOPC      H11R           -4.9772571700      -10.8104015374        5.4742599713  MEMB      8               0.0000000000
      1535        36  DOPC      H11S           -5.1630667545      -11.5414397274        7.0867036739  MEMB      8               0.0000000000
      1536        36  DOPC      C212           -6.0338223906      -12.7016969472        5.5036662050  MEMB      8               0.0000000000
      1537        36  DOPC      H12R           -7.0139389047      -12.2092848943        5.6960390625  MEMB      8               0.0000000000
      1538        36  DOPC      H12S           -6.0090838351      -13.6571168237        6.0742981858  MEMB      8               0.0000000000
      1539        36  DOPC      C213           -5.9673239399      -13.0036542792        4.0030411751  MEMB      8               0.0000000000
      1540        36  DOPC      H13R           -5.0666910256      -13.5691438865        3.7773228475  MEMB      8               0.0000000000
      1541        36  DOPC      H13S           -5.9097727106      -12.0640402852        3.4123010336  MEMB      8               0.0000000000
      1542        36  DOPC      C214           -7.1258549045      -13.8827599415        3.5491598569  MEMB      8               0.0000000000
      1543        36  DOPC      H14R           -8.0581626743      -13.3841771662        3.8942189561  MEMB      8               0.0000000000
      1544        36  DOPC      H14S           -7.0997838680      -14.8825915214        4.0201726623  MEMB      8               0.0000000000
      1545        36  DOPC      C215           -7.1799373870      -14.1031848574        2.0404735117  MEMB      8               0.0000000000
      1546        36  DOPC      H15R           -6.4579781620      -14.8784088334        1.6987524506  MEMB      8               0.0000000000
      1547        36  DOPC      H15S           -6.8841659891      -13.1391722398        1.5730182783  MEMB      8               0.0000000000
      1548        36  DOPC      C216           -8.6154899417      -14.5013492854        1.6914291697  MEMB      8               0.0000000000
      1549        36  DOPC      H16R           -9.2748457091      -13.8056391410        2.2553406448  MEMB      8               0.0000000000
      1550        36  DOPC      H16S           -8.8243440584      -15.5296570635        2.0650609947  MEMB      8               0.0000000000
      1551        36  DOPC      C217           -9.0094696035      -14.3962337719        0.2209619327  MEMB      8               0.0000000000
      1552        36  DOPC      H17R          -10.1009768170      -14.1788830691        0.1700374278  MEMB      8               0.0000000000
      1553        36  DOPC      H17S           -8.8500340722      -15.3697070286       -0.2613212242  MEMB      8               0.0000000000
      1554        36  DOPC      C218           -8.2287014591      -13.3597674191       -0.5653589177  MEMB      8               0.0000000000
      1555        36  DOPC      H18R           -7.2026970343      -13.7291265570       -0.7783111463  MEMB      8               0.0000000000
      1556        36  DOPC      H18S           -8.1590331015      -12.4414702889        0.0383861611  MEMB      8               0.0000000000
      1557        36  DOPC      H18T           -8.7252811119      -13.1057692883       -1.5136528570  MEMB      8               0.0000000000
      1558        36  DOPC      C33            -5.9876296891      -10.6126735888       11.6632879272  MEMB      8               0.0000000000
      1559        36  DOPC      H3X            -6.3081755505       -9.6117287653       12.0183748404  MEMB      8               0.0000000000
      1560        36  DOPC      H3Y            -6.4098623574      -10.7560426808       10.6404017764  MEMB      8               0.0000000000
      1561        36  DOPC      C34            -4.4680540545      -10.6339789826       11.5364491094  MEMB      8               0.0000000000
      1562        36  DOPC      H4X            -4.1384187375      -11.5526381882       11.0043646540  MEMB      8               0.0000000000
      1563        36  DOPC      H4Y            -3.9942069802      -10.6303079212       12.5422426189  MEMB      8               0.0000000000
      1564        36  DOPC      C35            -3.9815281851       -9.4022589987       10.7800852735  MEMB      8               0.0000000000
      1565        36  DOPC      H5X            -2.8726776769       -9.3993663845       10.8070221803  MEMB      8               0.0000000000
      1566        36  DOPC      H5Y            -4.3313509031       -8.4841727669       11.3018288597  MEMB      8               0.0000000000
      1567        36  DOPC      C36            -4.4456416664       -9.3555986112        9.3190062860  MEMB      8               0.0000000000
      1568        36  DOPC      H6X            -4.0441291703      -10.2525177609        8.8114859529  MEMB      8               0.0000000000
      1569        36  DOPC      H6Y            -5.5500287281       -9.4045182049        9.2284387201  MEMB      8               0.0000000000
      1570        36  DOPC      C37            -3.9504674325       -8.0693811180        8.6577389028  MEMB      8               0.0000000000
      1571        36  DOPC      H7X            -4.6576589502       -7.2477031625        8.9091987849  MEMB      8               0.0000000000
      1572        36  DOPC      H7Y            -2.9719074067       -7.7999467075        9.1051804661  MEMB      8               0.0000000000
      1573        36  DOPC      C38            -3.7612282588       -8.1044181198        7.1404425838  MEMB      8               0.0000000000
      1574        36  DOPC      H8X            -3.3147316060       -7.1179268448        6.9009951992  MEMB      8               0.0000000000
      1575        36  DOPC      H8Y            -4.7541791191       -8.1516749104        6.6408826770  MEMB      8               0.0000000000
      1576        36  DOPC      C39            -2.8639278589       -9.2096612308        6.6544503117  MEMB      8               0.0000000000
      1577        36  DOPC      H9X            -2.6970519125      -10.0454797274        7.3479482294  MEMB      8               0.0000000000
      1578        36  DOPC      C310           -2.2490130092       -9.2301036202        5.4662516387  MEMB      8               0.0000000000
      1579        36  DOPC      H10X           -1.6631268207      -10.1196527998        5.1843868972  MEMB      8               0.0000000000
      1580        36  DOPC      C311           -2.3562476407       -8.1451322425        4.4283997719  MEMB      8               0.0000000000
      1581        36  DOPC      H11X           -1.3404602735       -7.9199288882        4.0350795394  MEMB      8               0.0000000000
      1582        36  DOPC      H11Y           -2.7563083389       -7.2216109542        4.8645142346  MEMB      8               0.0000000000
      1583        36  DOPC      C312           -3.3103053149       -8.4099241620        3.2574187146  MEMB      8               0.0000000000
      1584        36  DOPC      H12X           -3.2060334035       -7.5466789243        2.5600197837  MEMB      8               0.0000000000
      1585        36  DOPC      H12Y           -4.3705523545       -8.4560301137        3.5883749213  MEMB      8               0.0000000000
      1586        36  DOPC      C313           -2.9380046844       -9.6909858688        2.5352225315  MEMB      8               0.0000000000
      1587        36  DOPC      H13X           -1.9150443387       -9.8798042868        2.8900674898  MEMB      8               0.0000000000
      1588        36  DOPC      H13Y           -3.5464021412      -10.5465809989        2.8964031579  MEMB      8               0.0000000000
      1589        36  DOPC      C314           -2.9697101562       -9.5728864357        1.0064324162  MEMB      8               0.0000000000
      1590        36  DOPC      H14X           -2.1682749320       -8.8847402065        0.6558722435  MEMB      8               0.0000000000
      1591        36  DOPC      H14Y           -2.7685130414      -10.5728041716        0.5561715253  MEMB      8               0.0000000000
      1592        36  DOPC      C315           -4.3253287379       -9.0722844229        0.5103110336  MEMB      8               0.0000000000
      1593        36  DOPC      H15X           -4.3232509343       -9.0800924041       -0.6002650879  MEMB      8               0.0000000000
      1594        36  DOPC      H15Y           -4.4848608887       -8.0140918106        0.8151860708  MEMB      8               0.0000000000
      1595        36  DOPC      C316           -5.4667461334       -9.9333299261        1.0669874226  MEMB      8               0.0000000000
      1596        36  DOPC      H16X           -5.0728762107      -10.9276941298        1.3809879159  MEMB      8               0.0000000000
      1597        36  DOPC      H16Y           -5.8732200306       -9.4491045385        1.9835676682  MEMB      8               0.0000000000
      1598        36  DOPC      C317           -6.5764612830      -10.1823550834        0.0489812671  MEMB      8               0.0000000000
      1599        36  DOPC      H17X           -6.4592043252       -9.4736978553       -0.8018898274  MEMB      8               0.0000000000
      1600        36  DOPC      H17Y           -6.4467364761      -11.2100113297       -0.3590565246  MEMB      8               0.0000000000
      1601        36  DOPC      C318           -7.9768643237       -9.9937556013        0.6190609683  MEMB      8               0.0000000000
      1602        36  DOPC      H18X           -8.1588171742       -8.9100187975        0.7566915804  MEMB      8               0.0000000000
      1603        36  DOPC      H18Y           -8.7424316422      -10.3810441896       -0.0861855669  MEMB      8               0.0000000000
      1604        36  DOPC      H18Z           -8.0871513415      -10.5146828341        1.5979961315  MEMB      8               0.0000000000
      1605        37  DOPC      N               9.3370370006       11.5389788738       20.8669093867  MEMB      9               0.0000000000
      1606        37  DOPC      C12             8.7610550991       11.3736881559       19.4727407262  MEMB      9               0.0000000000
      1607        37  DOPC      H12A            7.8881128514       12.0119573519       19.3884164379  MEMB      9               0.0000000000
      1608        37  DOPC      H12B            8.4774584604       10.3443572379       19.3268867993  MEMB      9               0.0000000000
      1609        37  DOPC      C13             9.7299837254       12.9775091869       21.0687565566  MEMB      9               0.0000000000
      1610        37  DOPC      H13A           10.3382606856       13.1333598668       21.9475599777  MEMB      9               0.0000000000
      1611        37  DOPC      H13B           10.3049107766       13.3046969291       20.1994115873  MEMB      9               0.0000000000
      1612        37  DOPC      H13C            8.8863877548       13.6505646401       21.1180665265  MEMB      9               0.0000000000
      1613        37  DOPC      C14            10.5687944478       10.6970153914       21.0114266917  MEMB      9               0.0000000000
      1614        37  DOPC      H14A           11.3405900084       11.0722710909       20.3397285520  MEMB      9               0.0000000000
      1615        37  DOPC      H14B           10.9915559275       10.7474430792       22.0165299769  MEMB      9               0.0000000000
      1616        37  DOPC      H14C           10.3982527691        9.6503601093       20.8194589456  MEMB      9               0.0000000000
      1617        37  DOPC      C15             8.3314472515       11.1606264251       21.8923236179  MEMB      9               0.0000000000
      1618        37  DOPC      H15A            7.9252789512       10.1817829149       21.7059683319  MEMB      9               0.0000000000
      1619        37  DOPC      H15B            7.5163932083       11.8789150151       21.9319059744  MEMB      9               0.0000000000
      1620        37  DOPC      H15C            8.7571550819       11.1716184816       22.8902866017  MEMB      9               0.0000000000
      1621        37  DOPC      C11             9.6604918870       11.8027457818       18.3108305052  MEMB      9               0.0000000000
      1622        37  DOPC      H11A           10.6800570558       11.3665815888       18.4288179955  MEMB      9               0.0000000000
      1623        37  DOPC      H11B            9.2420565167       11.4414781538       17.3425821032  MEMB      9               0.0000000000
      1624        37  DOPC      P              10.8142927048       13.9845496701       17.5295605573  MEMB      9               0.0000000000
      1625        37  DOPC      O13            11.9084085763       13.0318469518       17.2414220875  MEMB      9               0.0000000000
      1626        37  DOPC      O14            11.1429804757       15.1910135040       18.3261769733  MEMB      9               0.0000000000
      1627        37  DOPC      O12             9.6843569708       13.2177895693       18.3197203459  MEMB      9               0.0000000000
      1628        37  DOPC      O11             9.9957499150       14.3514267633       16.2168620336  MEMB      9               0.0000000000
      1629        37  DOPC      C1              8.5651093077       14.2414283246       16.2219671902  MEMB      9               0.0000000000
      1630        37  DOPC      HA              8.1390654777       14.5638698142       17.2014316139  MEMB      9               0.0000000000
      1631        37  DOPC      HB              8.2873706404       13.1802460404       16.0379513399  MEMB      9               0.0000000000
      1632        37  DOPC      C2              7.8407476709       15.1184307807       15.1567255592  MEMB      9               0.0000000000
      1633        37  DOPC      HS              6.7553896546       15.0698247083       15.3790254542  MEMB      9               0.0000000000
      1634        37  DOPC      O21             8.0903917474       14.5459415501       13.8662175264  MEMB      9               0.0000000000
      1635        37  DOPC      C21             7.2736945410       14.8583193405       12.8748718775  MEMB      9               0.0000000000
      1636        37  DOPC      O22             6.3569759874       15.6554790038       12.9088742119  MEMB      9               0.0000000000
      1637        37  DOPC      C22             7.7088067657       13.9993275837       11.6975447286  MEMB      9               0.0000000000
      1638        37  DOPC      H2R             7.9332620758       12.9837959658       12.0892976294  MEMB      9               0.0000000000
      1639        37  DOPC      H2S             8.6463149390       14.4357284581       11.2967689485  MEMB      9               0.0000000000
      1640        37  DOPC      C3              8.2998483745       16.6094880486       15.2351085411  MEMB      9               0.0000000000
      1641        37  DOPC      HX              8.0912685226       16.9624651822       16.2698520959  MEMB      9               0.0000000000
      1642        37  DOPC      HY              7.6813859079       17.2416045101       14.5588797623  MEMB      9               0.0000000000
      1643        37  DOPC      O31             9.7126746462       16.7515846596       15.0016794211  MEMB      9               0.0000000000
      1644        37  DOPC      C31            10.0273699184       16.7287682873       13.7247656525  MEMB      9               0.0000000000
      1645        37  DOPC      O32             9.2649214621       16.9904921271       12.8079506940  MEMB      9               0.0000000000
      1646        37  DOPC      C32            11.4376533977       16.2189052342       13.5392943263  MEMB      9               0.0000000000
      1647        37  DOPC      H2X            12.1426118551       17.0566293097       13.7060496514  MEMB      9               0.0000000000
      1648        37  DOPC      H2Y            11.6165513639       15.4247022114       14.2978187189  MEMB      9               0.0000000000
      1649        37  DOPC      C23             6.6600421886       13.9002992632       10.5838850004  MEMB      9               0.0000000000
      1650        37  DOPC      H3R             6.5917201207       14.8934819166       10.0861774433  MEMB      9               0.0000000000
      1651        37  DOPC      H3S             5.6504330629       13.6642428130       10.9901447089  MEMB      9               0.0000000000
      1652        37  DOPC      C24             7.0485904703       12.8147315156        9.5767506329  MEMB      9               0.0000000000
      1653        37  DOPC      H4R             6.5764746069       11.8499350614        9.8682626359  MEMB      9               0.0000000000
      1654        37  DOPC      H4S             8.1535483200       12.6622731696        9.6033672213  MEMB      9               0.0000000000
      1655        37  DOPC      C25             6.6553593339       13.1920507354        8.1523713123  MEMB      9               0.0000000000
      1656        37  DOPC      H5R             5.5850534352       13.4894955993        8.1167333378  MEMB      9               0.0000000000
      1657        37  DOPC      H5S             6.7571384780       12.2811058499        7.5316802383  MEMB      9               0.0000000000
      1658        37  DOPC      C26             7.5308229381       14.3293970353        7.6043104166  MEMB      9               0.0000000000
      1659        37  DOPC      H6R             8.5916230121       14.1841050047        7.9076393979  MEMB      9               0.0000000000
      1660        37  DOPC      H6S             7.1904672084       15.2846754931        8.0656963336  MEMB      9               0.0000000000
      1661        37  DOPC      C27             7.4729774527       14.4792888598        6.0802135441  MEMB      9               0.0000000000
      1662        37  DOPC      H7R             7.6597769288       15.5534316663        5.8462401187  MEMB      9               0.0000000000
      1663        37  DOPC      H7S             6.4476731336       14.2429770007        5.7219061668  MEMB      9               0.0000000000
      1664        37  DOPC      C28             8.5389625061       13.6503413806        5.3300203815  MEMB      9               0.0000000000
      1665        37  DOPC      H8R             9.4699799231       13.6183138771        5.9335939453  MEMB      9               0.0000000000
      1666        37  DOPC      H8S             8.8084645060       14.1800307869        4.3907678435  MEMB      9               0.0000000000
      1667        37  DOPC      C29             8.0380193751       12.2617169607        5.0362721028  MEMB      9               0.0000000000
      1668        37  DOPC      H9R             7.5309039502       11.7599058393        5.8652025122  MEMB      9               0.0000000000
      1669        37  DOPC      C210            8.1769304766       11.5721398539        3.8994840329  MEMB      9               0.0000000000
      1670        37  DOPC      H10R            7.7418013300       10.5619290940        3.8522947890  MEMB      9               0.0000000000
      1671        37  DOPC      C211            8.8778573220       12.0167215578        2.6415951206  MEMB      9               0.0000000000
      1672        37  DOPC      H11R            9.5350601942       12.8968189166        2.7988030440  MEMB      9               0.0000000000
      1673        37  DOPC      H11S            8.1648613919       12.2843912174        1.8310438907  MEMB      9               0.0000000000
      1674        37  DOPC      C212            9.6928346550       10.8156720615        2.1560159748  MEMB      9               0.0000000000
      1675        37  DOPC      H12R           10.1775354256       11.0565354086        1.1848488767  MEMB      9               0.0000000000
      1676        37  DOPC      H12S            8.9499927614       10.0121993833        1.9791974765  MEMB      9               0.0000000000
      1677        37  DOPC      C213           10.7412082666       10.2759238866        3.1469879722  MEMB      9               0.0000000000
      1678        37  DOPC      H13R           11.3881612918        9.5446413668        2.6211575585  MEMB      9               0.0000000000
      1679        37  DOPC      H13S           10.2049496084        9.7168008489        3.9487515353  MEMB      9               0.0000000000
      1680        37  DOPC      C214           11.6194092033       11.3476276946        3.8176500049  MEMB      9               0.0000000000
      1681        37  DOPC      H14R           12.3500108963       10.8423434299        4.4863227856  MEMB      9               0.0000000000
      1682        37  DOPC      H14S           10.9557389874       11.9652346959        4.4632951290  MEMB      9               0.0000000000
      1683        37  DOPC      C215           12.3606959938       12.2741991585        2.8368136362  MEMB      9               0.0000000000
      1684        37  DOPC      H15R           11.6538732909       12.5734535799        2.0321804581  MEMB      9               0.0000000000
      1685        37  DOPC      H15S           13.1958377344       11.7211810641        2.3572687131  MEMB      9               0.0000000000
      1686        37  DOPC      C216           12.8755021079       13.5693368517        3.4891265772  MEMB      9               0.0000000000
      1687        37  DOPC      H16R           13.7270488778       13.3461952051        4.1662498226  MEMB      9               0.0000000000
      1688        37  DOPC      H16S           12.0550202468       13.9908082071        4.1136671798  MEMB      9               0.0000000000
      1689        37  DOPC      C217           13.2838422756       14.6389564447        2.4611591597  MEMB      9               0.0000000000
      1690        37  DOPC      H17R           12.4482365061       14.7398796217        1.7285183491  MEMB      9               0.0000000000
      1691        37  DOPC      H17S           14.1833291779       14.3025599814        1.9022305745  MEMB      9               0.0000000000
      1692        37  DOPC      C218           13.5366829653       16.0162578476        3.0785002306  MEMB      9               0.0000000000
      1693        37  DOPC      H18R           12.6007725604       16.3732125940        3.5268560660  MEMB      9               0.0000000000
      1694        37  DOPC      H18S           13.8617413255       16.7701591844        2.3348951797  MEMB      9               0.0000000000
      1695        37  DOPC      H18T           14.3006059830       15.9978098510        3.8744401491  MEMB      9               0.0000000000
      1696        37  DOPC      C33            11.5637598032       15.6363238887       12.1230296726  MEMB      9               0.0000000000
      1697        37  DOPC      H3X            10.6744981424       15.0238781043       11.8541789279  MEMB      9               0.0000000000
      1698        37  DOPC      H3Y            12.4269158815       14.9389714711       12.1060813259  MEMB      9               0.0000000000
      1699        37  DOPC      C34            11.7756413057       16.7306163765       11.0727500549  MEMB      9               0.0000000000
      1700        37  DOPC      H4X            12.6706479141       17.3315098359       11.3424208099  MEMB      9               0.0000000000
      1701        37  DOPC      H4Y            10.9128140647       17.4345912030       11.0536978992  MEMB      9               0.0000000000
      1702        37  DOPC      C35            11.9529333783       16.1364713932        9.6812026204  MEMB      9               0.0000000000
      1703        37  DOPC      H5X            10.9567321969       15.7947311412        9.3221968761  MEMB      9               0.0000000000
      1704        37  DOPC      H5Y            12.6136397962       15.2436838772        9.7310245999  MEMB      9               0.0000000000
      1705        37  DOPC      C36            12.5731592884       17.1436493213        8.7132911368  MEMB      9               0.0000000000
      1706        37  DOPC      H6X            11.9096742521       18.0345953659        8.6358844176  MEMB      9               0.0000000000
      1707        37  DOPC      H6Y            13.5435560162       17.5010341779        9.1226644344  MEMB      9               0.0000000000
      1708        37  DOPC      C37            12.8126764229       16.5460057034        7.3214849886  MEMB      9               0.0000000000
      1709        37  DOPC      H7X            13.2121723370       17.3522437261        6.6684289041  MEMB      9               0.0000000000
      1710        37  DOPC      H7Y            13.6040656110       15.7659224399        7.3907921134  MEMB      9               0.0000000000
      1711        37  DOPC      C38            11.5547049477       15.9079146197        6.6934607212  MEMB      9               0.0000000000
      1712        37  DOPC      H8X            11.3001886595       14.9827659513        7.2562051400  MEMB      9               0.0000000000
      1713        37  DOPC      H8Y            11.8105221229       15.5774697418        5.6627509449  MEMB      9               0.0000000000
      1714        37  DOPC      C39            10.3674751867       16.8393701751        6.6752053311  MEMB      9               0.0000000000
      1715        37  DOPC      H9X             9.6052227908       16.6531872057        7.4496277109  MEMB      9               0.0000000000
      1716        37  DOPC      C310           10.2067701248       17.8593082760        5.8161268050  MEMB      9               0.0000000000
      1717        37  DOPC      H10X            9.2958897438       18.4758023897        5.8611786944  MEMB      9               0.0000000000
      1718        37  DOPC      C311           11.1872637508       18.2309565135        4.7359063276  MEMB      9               0.0000000000
      1719        37  DOPC      H11X           12.1691757047       17.7436209664        4.8844975298  MEMB      9               0.0000000000
      1720        37  DOPC      H11Y           11.4050489162       19.3205918837        4.7922044321  MEMB      9               0.0000000000
      1721        37  DOPC      C312           10.6606840962       17.9296679356        3.3156746464  MEMB      9               0.0000000000
      1722        37  DOPC      H12X           11.4745957601       18.0629402023        2.5696863786  MEMB      9               0.0000000000
      1723        37  DOPC      H12Y            9.9127623133       18.7152296987        3.1414548670  MEMB      9               0.0000000000
      1724        37  DOPC      C313            9.9319544993       16.5902181523        3.0749661063  MEMB      9               0.0000000000
      1725        37  DOPC      H13X           10.5982882247       15.7158269785        3.2282403161  MEMB      9               0.0000000000
      1726        37  DOPC      H13Y            9.1142351258       16.5056228142        3.8245992813  MEMB      9               0.0000000000
      1727        37  DOPC      C314            9.2532509649       16.4893414524        1.6890190908  MEMB      9               0.0000000000
      1728        37  DOPC      H14X           10.0041285824       16.3054363679        0.8962828627  MEMB      9               0.0000000000
      1729        37  DOPC      H14Y            8.6211067258       15.5805688916        1.7403822076  MEMB      9               0.0000000000
      1730        37  DOPC      C315            8.3933326708       17.7315730030        1.3609408379  MEMB      9               0.0000000000
      1731        37  DOPC      H15X            9.0817919189       18.5937290928        1.2551393954  MEMB      9               0.0000000000
      1732        37  DOPC      H15Y            7.7678277001       17.9598297565        2.2497885817  MEMB      9               0.0000000000
      1733        37  DOPC      C316            7.4952972878       17.8008289264        0.0995266757  MEMB      9               0.0000000000
      1734        37  DOPC      H16X            6.6948601939       18.5429097146        0.3403276684  MEMB      9               0.0000000000
      1735        37  DOPC      H16Y            8.0851120866       18.3014934726       -0.6837586352  MEMB      9               0.0000000000
      1736        37  DOPC      C317            6.7855630870       16.5555269543       -0.4891093102  MEMB      9               0.0000000000
      1737        37  DOPC      H17X            5.9889027638       16.2537824458        0.2189799930  MEMB      9               0.0000000000
      1738        37  DOPC      H17Y            6.2479716538       16.9001099653       -1.4063907544  MEMB      9               0.0000000000
      1739        37  DOPC      C318            7.6019937412       15.3140804629       -0.8985934415  MEMB      9               0.0000000000
      1740        37  DOPC      H18X            8.3086920092       14.9775061848       -0.1245311442  MEMB      9               0.0000000000
      1741        37  DOPC      H18Y            6.9187424053       14.4603104881       -1.0709408375  MEMB      9               0.0000000000
      1742        37  DOPC      H18Z            8.1719188517       15.4684897209       -1.8334068918  MEMB      9               0.0000000000
      1743        38  DOPC      N              -3.9090685219       15.8907992126       18.9676229270  MEMB      10              0.0000000000
      1744        38  DOPC      C12            -4.9076913858       15.4179672356       20.0364752744  MEMB      10              0.0000000000
      1745        38  DOPC      H12A           -4.5581796514       15.7304908756       21.0232628561  MEMB      10              0.0000000000
      1746        38  DOPC      H12B           -4.8642298338       14.3309903379       20.0693178908  MEMB      10              0.0000000000
      1747        38  DOPC      C13            -2.5211299603       15.4368727961       19.3054134552  MEMB      10              0.0000000000
      1748        38  DOPC      H13A           -1.7842705439       15.8194131877       18.6102953293  MEMB      10              0.0000000000
      1749        38  DOPC      H13B           -2.2075800793       15.6852384510       20.3077226775  MEMB      10              0.0000000000
      1750        38  DOPC      H13C           -2.4573165229       14.3508125402       19.2300059187  MEMB      10              0.0000000000
      1751        38  DOPC      C14            -3.8726499203       17.3717822149       18.9217028848  MEMB      10              0.0000000000
      1752        38  DOPC      H14A           -3.3175134666       17.7524318216       18.0712711097  MEMB      10              0.0000000000
      1753        38  DOPC      H14B           -4.8957604390       17.7137541526       18.8641874787  MEMB      10              0.0000000000
      1754        38  DOPC      H14C           -3.4797297187       17.7810299867       19.8364545361  MEMB      10              0.0000000000
      1755        38  DOPC      C15            -4.2615492903       15.3102337459       17.6231934888  MEMB      10              0.0000000000
      1756        38  DOPC      H15A           -5.3181078448       15.4077088018       17.3991535468  MEMB      10              0.0000000000
      1757        38  DOPC      H15B           -3.9997458613       14.2509673618       17.6076745464  MEMB      10              0.0000000000
      1758        38  DOPC      H15C           -3.7019383206       15.7700542444       16.8152395197  MEMB      10              0.0000000000
      1759        38  DOPC      C11            -6.4288898113       15.8356096188       19.9467803569  MEMB      10              0.0000000000
      1760        38  DOPC      H11A           -6.8302107000       15.5677061181       18.9492620483  MEMB      10              0.0000000000
      1761        38  DOPC      H11B           -6.9809608531       15.1797652697       20.6600252077  MEMB      10              0.0000000000
      1762        38  DOPC      P              -7.8537233989       18.1880973532       19.8977583626  MEMB      10              0.0000000000
      1763        38  DOPC      O13            -7.4833054771       19.4965275536       20.4720687894  MEMB      10              0.0000000000
      1764        38  DOPC      O14            -9.1334823234       17.6192639699       20.3528732567  MEMB      10              0.0000000000
      1765        38  DOPC      O12            -6.6517726399       17.2076378444       20.2850585688  MEMB      10              0.0000000000
      1766        38  DOPC      O11            -7.8241145350       18.2115733808       18.3356229475  MEMB      10              0.0000000000
      1767        38  DOPC      C1             -6.7091724673       17.9100898983       17.5197430752  MEMB      10              0.0000000000
      1768        38  DOPC      HA             -6.5446884974       16.8174369841       17.4477671807  MEMB      10              0.0000000000
      1769        38  DOPC      HB             -5.8411375622       18.4815033752       17.8911837820  MEMB      10              0.0000000000
      1770        38  DOPC      C2             -6.9375822319       18.4335268759       16.1027686784  MEMB      10              0.0000000000
      1771        38  DOPC      HS             -7.5413515375       19.3373726476       16.2050751229  MEMB      10              0.0000000000
      1772        38  DOPC      O21            -7.6175602383       17.4403524107       15.3083911331  MEMB      10              0.0000000000
      1773        38  DOPC      C21            -8.9520253708       17.5493672602       15.4577580965  MEMB      10              0.0000000000
      1774        38  DOPC      O22            -9.5453249202       18.3725996634       16.1137816268  MEMB      10              0.0000000000
      1775        38  DOPC      C22            -9.7056605961       16.5340032162       14.6826589638  MEMB      10              0.0000000000
      1776        38  DOPC      H2R           -10.2006272864       15.9528491807       15.4928945742  MEMB      10              0.0000000000
      1777        38  DOPC      H2S            -9.0089382362       15.8921813958       14.1243091074  MEMB      10              0.0000000000
      1778        38  DOPC      C3             -5.6340789143       18.9236269810       15.3456120839  MEMB      10              0.0000000000
      1779        38  DOPC      HX             -5.3907912883       19.8929460991       15.8402441933  MEMB      10              0.0000000000
      1780        38  DOPC      HY             -6.0020074518       19.1662001631       14.3216573078  MEMB      10              0.0000000000
      1781        38  DOPC      O31            -4.4561727876       18.0724422190       15.2253908862  MEMB      10              0.0000000000
      1782        38  DOPC      C31            -3.2751713553       18.7585695430       15.3145388034  MEMB      10              0.0000000000
      1783        38  DOPC      O32            -3.0444783772       19.6226568696       16.1367291768  MEMB      10              0.0000000000
      1784        38  DOPC      C32            -2.2850689174       18.3095375705       14.2367236174  MEMB      10              0.0000000000
      1785        38  DOPC      H2X            -1.9443789906       17.3048422107       14.5620470362  MEMB      10              0.0000000000
      1786        38  DOPC      H2Y            -2.8185496098       18.2170390711       13.2723407434  MEMB      10              0.0000000000
      1787        38  DOPC      C23           -10.8412358972       17.1717290409       13.8462405174  MEMB      10              0.0000000000
      1788        38  DOPC      H3R           -10.9994332915       18.2380397954       14.1336787599  MEMB      10              0.0000000000
      1789        38  DOPC      H3S           -11.7877452803       16.6424329813       14.1169526810  MEMB      10              0.0000000000
      1790        38  DOPC      C24           -10.6915686799       17.0795826468       12.3219272750  MEMB      10              0.0000000000
      1791        38  DOPC      H4R           -11.2201040244       17.9641817021       11.8943693019  MEMB      10              0.0000000000
      1792        38  DOPC      H4S           -11.2128074576       16.1706841527       11.9529723844  MEMB      10              0.0000000000
      1793        38  DOPC      C25            -9.2702777277       17.0736937649       11.7440808653  MEMB      10              0.0000000000
      1794        38  DOPC      H5R            -8.5618270952       17.6808011984       12.3475503710  MEMB      10              0.0000000000
      1795        38  DOPC      H5S            -9.3840320451       17.5304634991       10.7321718489  MEMB      10              0.0000000000
      1796        38  DOPC      C26            -8.7052511008       15.6951006585       11.4294998804  MEMB      10              0.0000000000
      1797        38  DOPC      H6R            -9.5026266913       15.1367025604       10.8882030060  MEMB      10              0.0000000000
      1798        38  DOPC      H6S            -8.4936810226       15.1099686584       12.3482462402  MEMB      10              0.0000000000
      1799        38  DOPC      C27            -7.4396830791       15.7018135093       10.5519250811  MEMB      10              0.0000000000
      1800        38  DOPC      H7R            -7.6699983115       14.9919053250        9.7286418257  MEMB      10              0.0000000000
      1801        38  DOPC      H7S            -6.6115938827       15.2544350803       11.1527060982  MEMB      10              0.0000000000
      1802        38  DOPC      C28            -6.9432949143       17.0059116046        9.8956503340  MEMB      10              0.0000000000
      1803        38  DOPC      H8R            -6.5254299546       17.6587933497       10.6966648053  MEMB      10              0.0000000000
      1804        38  DOPC      H8S            -7.7476955538       17.5412483804        9.3557464593  MEMB      10              0.0000000000
      1805        38  DOPC      C29            -5.8772561838       16.4959040212        8.9638700538  MEMB      10              0.0000000000
      1806        38  DOPC      H9R            -5.0612589184       16.0312699049        9.5460218278  MEMB      10              0.0000000000
      1807        38  DOPC      C210           -5.6723465646       16.5835793998        7.6303230988  MEMB      10              0.0000000000
      1808        38  DOPC      H10R           -5.1863655836       15.6721179840        7.3208870048  MEMB      10              0.0000000000
      1809        38  DOPC      C211           -6.2429658233       17.2036260689        6.3582127093  MEMB      10              0.0000000000
      1810        38  DOPC      H11R           -6.9804409890       18.0085458551        6.5694015001  MEMB      10              0.0000000000
      1811        38  DOPC      H11S           -6.7710455867       16.3929455535        5.8112654838  MEMB      10              0.0000000000
      1812        38  DOPC      C212           -5.1118283297       17.6915421275        5.3641552040  MEMB      10              0.0000000000
      1813        38  DOPC      H12R           -4.3188065371       16.9259234066        5.2570377512  MEMB      10              0.0000000000
      1814        38  DOPC      H12S           -4.6432072855       18.5758426044        5.8624314605  MEMB      10              0.0000000000
      1815        38  DOPC      C213           -5.4752199182       18.1167101512        3.8946728974  MEMB      10              0.0000000000
      1816        38  DOPC      H13R           -4.7273886257       18.8952661810        3.6010180350  MEMB      10              0.0000000000
      1817        38  DOPC      H13S           -6.4718719652       18.5863257848        3.9447504284  MEMB      10              0.0000000000
      1818        38  DOPC      C214           -5.4308043188       17.0741031618        2.7211679515  MEMB      10              0.0000000000
      1819        38  DOPC      H14R           -5.9834246041       16.1646407515        3.0214654539  MEMB      10              0.0000000000
      1820        38  DOPC      H14S           -4.3786359279       16.7691678320        2.5403421614  MEMB      10              0.0000000000
      1821        38  DOPC      C215           -6.0122430084       17.5509361377        1.3411279911  MEMB      10              0.0000000000
      1822        38  DOPC      H15R           -6.3386204994       18.5903687116        1.5083977423  MEMB      10              0.0000000000
      1823        38  DOPC      H15S           -6.9287487436       16.9771169919        1.0894805383  MEMB      10              0.0000000000
      1824        38  DOPC      C216           -5.0516742810       17.4315823051        0.1180915167  MEMB      10              0.0000000000
      1825        38  DOPC      H16R           -4.5634820839       16.4334816421        0.1947269467  MEMB      10              0.0000000000
      1826        38  DOPC      H16S           -4.2668137867       18.2164400604        0.1823836051  MEMB      10              0.0000000000
      1827        38  DOPC      C217           -5.5883702442       17.4387589459       -1.3369891361  MEMB      10              0.0000000000
      1828        38  DOPC      H17R           -5.9278140414       18.4465247635       -1.6673033309  MEMB      10              0.0000000000
      1829        38  DOPC      H17S           -6.4610360169       16.7555052491       -1.4359760899  MEMB      10              0.0000000000
      1830        38  DOPC      C218           -4.4708088162       16.9473171128       -2.2793125526  MEMB      10              0.0000000000
      1831        38  DOPC      H18R           -4.7504006183       17.0123779206       -3.3510753140  MEMB      10              0.0000000000
      1832        38  DOPC      H18S           -4.2336651476       15.8861759592       -2.0440490265  MEMB      10              0.0000000000
      1833        38  DOPC      H18T           -3.5454986968       17.5441100812       -2.1217148944  MEMB      10              0.0000000000
      1834        38  DOPC      C33            -0.9893198261       19.1655601744       14.0615653895  MEMB      10              0.0000000000
      1835        38  DOPC      H3X            -0.3476868998       18.6338503073       13.3176139141  MEMB      10              0.0000000000
      1836        38  DOPC      H3Y            -0.4219288212       19.1784800069       15.0178409305  MEMB      10              0.0000000000
      1837        38  DOPC      C34            -1.1146221672       20.6226749736       13.5618086610  MEMB      10              0.0000000000
      1838        38  DOPC      H4X            -0.0702856548       20.9927865613       13.4079520768  MEMB      10              0.0000000000
      1839        38  DOPC      H4Y            -1.5779704141       21.2624680103       14.3438604274  MEMB      10              0.0000000000
      1840        38  DOPC      C35            -1.8498749265       20.8102728717       12.2240926923  MEMB      10              0.0000000000
      1841        38  DOPC      H5X            -2.9083821874       20.4874472413       12.2987568158  MEMB      10              0.0000000000
      1842        38  DOPC      H5Y            -1.3395672314       20.1733208368       11.4639821207  MEMB      10              0.0000000000
      1843        38  DOPC      C36            -1.8051172046       22.2588690192       11.7145689527  MEMB      10              0.0000000000
      1844        38  DOPC      H6X            -0.8582169827       22.7299356009       12.0640599365  MEMB      10              0.0000000000
      1845        38  DOPC      H6Y            -1.7588235338       22.2389143062       10.6019722909  MEMB      10              0.0000000000
      1846        38  DOPC      C37            -3.0213822317       23.1176993373       12.1191243568  MEMB      10              0.0000000000
      1847        38  DOPC      H7X            -3.4840660058       22.6740125301       13.0303298030  MEMB      10              0.0000000000
      1848        38  DOPC      H7Y            -2.6860661874       24.1425729981       12.3882224940  MEMB      10              0.0000000000
      1849        38  DOPC      C38            -4.1023205648       23.1771344003       11.0118758378  MEMB      10              0.0000000000
      1850        38  DOPC      H8X            -4.5440890995       22.1642395734       11.0844240019  MEMB      10              0.0000000000
      1851        38  DOPC      H8Y            -3.6431567788       23.3131801284       10.0065036167  MEMB      10              0.0000000000
      1852        38  DOPC      C39            -5.1781100529       24.1985580564       11.2674036412  MEMB      10              0.0000000000
      1853        38  DOPC      H9X            -5.2183480043       24.4495496329       12.3385193158  MEMB      10              0.0000000000
      1854        38  DOPC      C310           -6.0857987061       24.7974667334       10.4543311364  MEMB      10              0.0000000000
      1855        38  DOPC      H10X           -6.7100405232       25.5795770747       10.9154368868  MEMB      10              0.0000000000
      1856        38  DOPC      C311           -6.3458854253       24.6381686444        8.9680780612  MEMB      10              0.0000000000
      1857        38  DOPC      H11X           -5.9008214046       23.6921116840        8.6025906022  MEMB      10              0.0000000000
      1858        38  DOPC      H11Y           -5.8638364373       25.4615280073        8.3950775733  MEMB      10              0.0000000000
      1859        38  DOPC      C312           -7.8608126644       24.6529942342        8.6022204245  MEMB      10              0.0000000000
      1860        38  DOPC      H12X           -8.2922504630       25.6320370698        8.8555729311  MEMB      10              0.0000000000
      1861        38  DOPC      H12Y           -8.4338640438       23.9280029081        9.2172427193  MEMB      10              0.0000000000
      1862        38  DOPC      C313           -8.1914825099       24.4056516683        7.1130998193  MEMB      10              0.0000000000
      1863        38  DOPC      H13X           -9.2952369376       24.4870216900        6.9813404401  MEMB      10              0.0000000000
      1864        38  DOPC      H13Y           -7.7243899538       25.2065062720        6.5005045107  MEMB      10              0.0000000000
      1865        38  DOPC      C314           -7.7412020062       23.0255599459        6.6131536523  MEMB      10              0.0000000000
      1866        38  DOPC      H14X           -6.6293454132       22.9813801648        6.6248611059  MEMB      10              0.0000000000
      1867        38  DOPC      H14Y           -8.1256812114       22.2539443969        7.3071426921  MEMB      10              0.0000000000
      1868        38  DOPC      C315           -8.2404106516       22.6074341330        5.2247853381  MEMB      10              0.0000000000
      1869        38  DOPC      H15X           -7.9661722859       23.3847785922        4.4830562389  MEMB      10              0.0000000000
      1870        38  DOPC      H15Y           -9.3470189933       22.5300096397        5.2360810789  MEMB      10              0.0000000000
      1871        38  DOPC      C316           -7.6097800890       21.2636621778        4.8169769327  MEMB      10              0.0000000000
      1872        38  DOPC      H16X           -6.5409601498       21.3009142811        5.1291837394  MEMB      10              0.0000000000
      1873        38  DOPC      H16Y           -8.0722435017       20.4237372174        5.3805894758  MEMB      10              0.0000000000
      1874        38  DOPC      C317           -7.6209131949       20.9916676684        3.3061396608  MEMB      10              0.0000000000
      1875        38  DOPC      H17X           -7.4436343802       21.9417852625        2.7587436576  MEMB      10              0.0000000000
      1876        38  DOPC      H17Y           -6.7645036661       20.3377468172        3.0454223788  MEMB      10              0.0000000000
      1877        38  DOPC      C318           -8.8895406382       20.3289210140        2.7864502662  MEMB      10              0.0000000000
      1878        38  DOPC      H18X           -9.6028652525       21.1232606531        2.4934119878  MEMB      10              0.0000000000
      1879        38  DOPC      H18Y           -8.6903256549       19.6793959683        1.9093251044  MEMB      10              0.0000000000
      1880        38  DOPC      H18Z           -9.3573632390       19.6976483190        3.5631981495  MEMB      10              0.0000000000
      1881        39  DOPC      N               3.3078031848      -20.9352815100       19.9032034329  MEMB      11              0.0000000000
      1882        39  DOPC      C12             1.8333491642      -20.6319906082       19.7449561477  MEMB      11              0.0000000000
      1883        39  DOPC      H12A            1.4127902754      -20.4529337443       20.7287410687  MEMB      11              0.0000000000
      1884        39  DOPC      H12B            1.3560574239      -21.5126448801       19.3304409256  MEMB      11              0.0000000000
      1885        39  DOPC      C13             4.0645069892      -19.7247906202       20.3705556649  MEMB      11              0.0000000000
      1886        39  DOPC      H13A            3.7725420509      -18.8784114861       19.7470218563  MEMB      11              0.0000000000
      1887        39  DOPC      H13B            3.7981881164      -19.4348212691       21.3850346873  MEMB      11              0.0000000000
      1888        39  DOPC      H13C            5.1335087006      -19.8768567345       20.3064250904  MEMB      11              0.0000000000
      1889        39  DOPC      C14             3.9075378520      -21.4093447317       18.6084357426  MEMB      11              0.0000000000
      1890        39  DOPC      H14A            4.9493199386      -21.6969230450       18.7409981222  MEMB      11              0.0000000000
      1891        39  DOPC      H14B            3.4118555864      -22.2979376115       18.2161107472  MEMB      11              0.0000000000
      1892        39  DOPC      H14C            3.8505362612      -20.6249224987       17.8601146518  MEMB      11              0.0000000000
      1893        39  DOPC      C15             3.5087313236      -22.0040205046       20.9087271103  MEMB      11              0.0000000000
      1894        39  DOPC      H15A            4.5619726212      -22.0239892019       21.1972676834  MEMB      11              0.0000000000
      1895        39  DOPC      H15B            3.2582851415      -22.9786868049       20.5120245754  MEMB      11              0.0000000000
      1896        39  DOPC      H15C            2.9020014255      -21.8608515543       21.7995930608  MEMB      11              0.0000000000
      1897        39  DOPC      C11             1.4451035081      -19.4128115399       18.8865995111  MEMB      11              0.0000000000
      1898        39  DOPC      H11A            1.8823363146      -19.5360683804       17.8673080057  MEMB      11              0.0000000000
      1899        39  DOPC      H11B            0.3333206955      -19.3841035840       18.7876320489  MEMB      11              0.0000000000
      1900        39  DOPC      P               1.7959443710      -16.8946853287       18.6198542753  MEMB      11              0.0000000000
      1901        39  DOPC      O13             2.6673097187      -17.0986096642       17.4496932666  MEMB      11              0.0000000000
      1902        39  DOPC      O14             2.0441180489      -15.7488617593       19.5172192423  MEMB      11              0.0000000000
      1903        39  DOPC      O12             1.8907780381      -18.2131925084       19.5034903344  MEMB      11              0.0000000000
      1904        39  DOPC      O11             0.2909327523      -16.9003937688       18.1820800798  MEMB      11              0.0000000000
      1905        39  DOPC      C1             -0.0150774655      -16.4393657128       16.8729122824  MEMB      11              0.0000000000
      1906        39  DOPC      HA              0.8455025322      -16.0480934005       16.2739209916  MEMB      11              0.0000000000
      1907        39  DOPC      HB             -0.7006623717      -15.5744963331       17.0099509881  MEMB      11              0.0000000000
      1908        39  DOPC      C2             -0.7456823374      -17.5261198623       16.0426529636  MEMB      11              0.0000000000
      1909        39  DOPC      HS             -1.3965569442      -18.1019279817       16.7319628977  MEMB      11              0.0000000000
      1910        39  DOPC      O21             0.1608663142      -18.3740039761       15.2689015381  MEMB      11              0.0000000000
      1911        39  DOPC      C21             0.1875493303      -19.6760029831       15.5747964211  MEMB      11              0.0000000000
      1912        39  DOPC      O22            -0.3961065045      -20.1844877792       16.5119570744  MEMB      11              0.0000000000
      1913        39  DOPC      C22             1.1037044072      -20.4911860637       14.6225591171  MEMB      11              0.0000000000
      1914        39  DOPC      H2R             1.9428317060      -20.8484474746       15.2511874497  MEMB      11              0.0000000000
      1915        39  DOPC      H2S             1.5567747419      -19.8247142996       13.8858903473  MEMB      11              0.0000000000
      1916        39  DOPC      C3             -1.6627388503      -16.7098720602       15.1022889717  MEMB      11              0.0000000000
      1917        39  DOPC      HX             -2.3660311734      -16.1171837616       15.7279445986  MEMB      11              0.0000000000
      1918        39  DOPC      HY             -2.2853747657      -17.4044295081       14.5054517173  MEMB      11              0.0000000000
      1919        39  DOPC      O31            -0.8551982236      -15.7884915937       14.3294017213  MEMB      11              0.0000000000
      1920        39  DOPC      C31            -0.3300726258      -16.4318025030       13.2922062361  MEMB      11              0.0000000000
      1921        39  DOPC      O32            -0.9074517158      -17.2509206353       12.6139062254  MEMB      11              0.0000000000
      1922        39  DOPC      C32             1.1438208195      -16.2105532399       13.2088368366  MEMB      11              0.0000000000
      1923        39  DOPC      H2X             1.3493500045      -15.2219380849       12.7728159350  MEMB      11              0.0000000000
      1924        39  DOPC      H2Y             1.6162506249      -16.2923787258       14.2146208406  MEMB      11              0.0000000000
      1925        39  DOPC      C23             0.4610197655      -21.7073087267       13.8539527832  MEMB      11              0.0000000000
      1926        39  DOPC      H3R            -0.2779461687      -22.2342454738       14.4881562009  MEMB      11              0.0000000000
      1927        39  DOPC      H3S             1.2806306211      -22.4285806025       13.6239170295  MEMB      11              0.0000000000
      1928        39  DOPC      C24            -0.1495815574      -21.2444994941       12.5091853233  MEMB      11              0.0000000000
      1929        39  DOPC      H4R             0.7332568260      -20.8227584559       11.9621393147  MEMB      11              0.0000000000
      1930        39  DOPC      H4S            -0.7977733285      -20.4072525857       12.7406680853  MEMB      11              0.0000000000
      1931        39  DOPC      C25            -0.8191959941      -22.2008696918       11.4612396876  MEMB      11              0.0000000000
      1932        39  DOPC      H5R            -0.3145872102      -23.1637639734       11.5461347123  MEMB      11              0.0000000000
      1933        39  DOPC      H5S            -0.4090344003      -21.8274472138       10.5031311568  MEMB      11              0.0000000000
      1934        39  DOPC      C26            -2.4146065860      -22.4433738801       11.1619491496  MEMB      11              0.0000000000
      1935        39  DOPC      H6R            -2.2129081131      -22.8166565217       10.1427213574  MEMB      11              0.0000000000
      1936        39  DOPC      H6S            -2.2890158043      -21.3842869270       11.4209451417  MEMB      11              0.0000000000
      1937        39  DOPC      C27            -3.9188782944      -21.8071117807       10.9124182834  MEMB      11              0.0000000000
      1938        39  DOPC      H7R            -4.3079322765      -21.3390730036       11.8033737805  MEMB      11              0.0000000000
      1939        39  DOPC      H7S            -4.5162171516      -22.7522152384       10.8717269820  MEMB      11              0.0000000000
      1940        39  DOPC      C28            -4.6467065270      -20.9010090599        9.7340348113  MEMB      11              0.0000000000
      1941        39  DOPC      H8R            -5.5622253007      -20.7877508265       10.3624501909  MEMB      11              0.0000000000
      1942        39  DOPC      H8S            -5.0322304209      -21.6638891923        9.0321188430  MEMB      11              0.0000000000
      1943        39  DOPC      C29            -4.8367967121      -19.4736198057        9.0957100236  MEMB      11              0.0000000000
      1944        39  DOPC      H9R            -5.9206694908      -19.2902876052        9.1419810567  MEMB      11              0.0000000000
      1945        39  DOPC      C210           -4.2611492002      -18.4778019290        8.3165841113  MEMB      11              0.0000000000
      1946        39  DOPC      H10R           -4.9035603567      -17.5975414447        8.2095041979  MEMB      11              0.0000000000
      1947        39  DOPC      C211           -2.9372776583      -18.2529659416        7.5703597088  MEMB      11              0.0000000000
      1948        39  DOPC      H11R           -2.6918804337      -19.2094022537        7.0674452492  MEMB      11              0.0000000000
      1949        39  DOPC      H11S           -2.1798736190      -17.9556065898        8.3176153998  MEMB      11              0.0000000000
      1950        39  DOPC      C212           -2.4585597580      -17.2366912764        6.4812651975  MEMB      11              0.0000000000
      1951        39  DOPC      H12R           -1.3429215816      -17.1685852716        6.5682907729  MEMB      11              0.0000000000
      1952        39  DOPC      H12S           -2.8426538540      -16.2089803757        6.6360039010  MEMB      11              0.0000000000
      1953        39  DOPC      C213           -2.7417449831      -17.8008960136        5.0946214836  MEMB      11              0.0000000000
      1954        39  DOPC      H13R           -3.7985840244      -17.5578709161        4.9070326043  MEMB      11              0.0000000000
      1955        39  DOPC      H13S           -2.6560066366      -18.9080483220        5.0998669154  MEMB      11              0.0000000000
      1956        39  DOPC      C214           -1.8836833210      -17.3060739370        3.9314392388  MEMB      11              0.0000000000
      1957        39  DOPC      H14R           -1.7201743137      -18.1705695555        3.2414327071  MEMB      11              0.0000000000
      1958        39  DOPC      H14S           -0.8845841748      -16.9468626898        4.2353743476  MEMB      11              0.0000000000
      1959        39  DOPC      C215           -2.6593479568      -16.2501179356        3.1668108646  MEMB      11              0.0000000000
      1960        39  DOPC      H15R           -3.7417168926      -16.4306273698        3.3497166425  MEMB      11              0.0000000000
      1961        39  DOPC      H15S           -2.5441521020      -16.3917243030        2.0810465696  MEMB      11              0.0000000000
      1962        39  DOPC      C216           -2.4755614752      -14.8361771410        3.6929995109  MEMB      11              0.0000000000
      1963        39  DOPC      H16R           -2.2355192700      -14.8563283602        4.7789387438  MEMB      11              0.0000000000
      1964        39  DOPC      H16S           -3.4731711979      -14.3989448304        3.6124886872  MEMB      11              0.0000000000
      1965        39  DOPC      C217           -1.5668487236      -13.8829047432        2.9257191730  MEMB      11              0.0000000000
      1966        39  DOPC      H17R           -0.5501936769      -13.9566961659        3.3610656858  MEMB      11              0.0000000000
      1967        39  DOPC      H17S           -1.9243803106      -12.8481492918        3.1447747482  MEMB      11              0.0000000000
      1968        39  DOPC      C218           -1.4651399408      -14.0500362585        1.4064663791  MEMB      11              0.0000000000
      1969        39  DOPC      H18R           -1.9747997733      -13.2341752865        0.8533431794  MEMB      11              0.0000000000
      1970        39  DOPC      H18S           -1.8293201910      -15.0091276681        1.0064647662  MEMB      11              0.0000000000
      1971        39  DOPC      H18T           -0.3868334023      -14.0411281608        1.1596478251  MEMB      11              0.0000000000
      1972        39  DOPC      C33             1.6655788678      -17.3250659047       12.3002832529  MEMB      11              0.0000000000
      1973        39  DOPC      H3X             1.0422068980      -17.5064139413       11.3911364119  MEMB      11              0.0000000000
      1974        39  DOPC      H3Y             1.6749429090      -18.2658933541       12.8646832128  MEMB      11              0.0000000000
      1975        39  DOPC      C34             3.0459006928      -16.9864364425       11.8271337827  MEMB      11              0.0000000000
      1976        39  DOPC      H4X             3.5591786933      -16.3448119070       12.5662251645  MEMB      11              0.0000000000
      1977        39  DOPC      H4Y             2.8549087471      -16.3898327673       10.9057948543  MEMB      11              0.0000000000
      1978        39  DOPC      C35             3.9286301131      -18.2048312400       11.5780889211  MEMB      11              0.0000000000
      1979        39  DOPC      H5X             3.4063324749      -19.1426920654       11.8772550493  MEMB      11              0.0000000000
      1980        39  DOPC      H5Y             4.8476078123      -18.1332059979       12.2051929189  MEMB      11              0.0000000000
      1981        39  DOPC      C36             4.3054241931      -18.2796882742       10.1054608624  MEMB      11              0.0000000000
      1982        39  DOPC      H6X             4.9969298610      -19.1294027140        9.9176896604  MEMB      11              0.0000000000
      1983        39  DOPC      H6Y             3.3546772438      -18.4957782865        9.5600949119  MEMB      11              0.0000000000
      1984        39  DOPC      C37             4.9069316686      -16.9692468556        9.5559833942  MEMB      11              0.0000000000
      1985        39  DOPC      H7X             4.6527061132      -16.0850282176       10.1780879724  MEMB      11              0.0000000000
      1986        39  DOPC      H7Y             6.0170306006      -17.0148346036        9.6014040464  MEMB      11              0.0000000000
      1987        39  DOPC      C38             4.3468248847      -16.6652028331        8.1614818517  MEMB      11              0.0000000000
      1988        39  DOPC      H8X             4.4207636546      -15.5803494034        7.9419515760  MEMB      11              0.0000000000
      1989        39  DOPC      H8Y             3.2794726412      -16.9492683718        8.1100815563  MEMB      11              0.0000000000
      1990        39  DOPC      C39             5.1448004618      -17.4222806735        7.1681208881  MEMB      11              0.0000000000
      1991        39  DOPC      H9X             5.9415752189      -16.8196501489        6.7112448487  MEMB      11              0.0000000000
      1992        39  DOPC      C310            5.0195616504      -18.6869063791        6.7581034189  MEMB      11              0.0000000000
      1993        39  DOPC      H10X            5.7563373454      -19.0192561615        6.0332548715  MEMB      11              0.0000000000
      1994        39  DOPC      C311            4.0710670335      -19.7945051907        7.1004658175  MEMB      11              0.0000000000
      1995        39  DOPC      H11X            3.0607769142      -19.4124683303        7.3596334728  MEMB      11              0.0000000000
      1996        39  DOPC      H11Y            4.4458836356      -20.4128695511        7.9495793680  MEMB      11              0.0000000000
      1997        39  DOPC      C312            4.0388510361      -20.6577643261        5.8173754355  MEMB      11              0.0000000000
      1998        39  DOPC      H12X            3.2123116402      -21.3925378678        5.9051463843  MEMB      11              0.0000000000
      1999        39  DOPC      H12Y            4.9866060602      -21.2387163781        5.7554986436  MEMB      11              0.0000000000
      2000        39  DOPC      C313            3.8778352689      -19.8526529731        4.5033783673  MEMB      11              0.0000000000
      2001        39  DOPC      H13X            3.0620939584      -19.1185317203        4.6708054317  MEMB      11              0.0000000000
      2002        39  DOPC      H13Y            4.8058770931      -19.2952422300        4.2438779793  MEMB      11              0.0000000000
      2003        39  DOPC      C314            3.5118884758      -20.6901776687        3.2851216417  MEMB      11              0.0000000000
      2004        39  DOPC      H14X            4.3955666446      -21.2394072945        2.9101796105  MEMB      11              0.0000000000
      2005        39  DOPC      H14Y            2.7906500367      -21.4473312611        3.6441619712  MEMB      11              0.0000000000
      2006        39  DOPC      C315            2.8543048274      -19.8882466773        2.1474860450  MEMB      11              0.0000000000
      2007        39  DOPC      H15X            1.9414566249      -19.3908609992        2.5416641406  MEMB      11              0.0000000000
      2008        39  DOPC      H15Y            2.5457929795      -20.6028248072        1.3538755151  MEMB      11              0.0000000000
      2009        39  DOPC      C316            3.7277281123      -18.8763009155        1.4147868426  MEMB      11              0.0000000000
      2010        39  DOPC      H16X            3.1568934046      -18.4922473669        0.5339426840  MEMB      11              0.0000000000
      2011        39  DOPC      H16Y            3.9752666050      -18.0118744210        2.0605975031  MEMB      11              0.0000000000
      2012        39  DOPC      C317            5.0186031949      -19.4991078274        0.9103297168  MEMB      11              0.0000000000
      2013        39  DOPC      H17X            5.6030945479      -19.9329036098        1.7485244889  MEMB      11              0.0000000000
      2014        39  DOPC      H17Y            4.7429436646      -20.3111522109        0.2083499211  MEMB      11              0.0000000000
      2015        39  DOPC      C318            5.8658264467      -18.4723020885        0.2012510692  MEMB      11              0.0000000000
      2016        39  DOPC      H18X            5.3432732425      -18.1761086044       -0.7305049620  MEMB      11              0.0000000000
      2017        39  DOPC      H18Y            5.9801434131      -17.5712758705        0.8401360444  MEMB      11              0.0000000000
      2018        39  DOPC      H18Z            6.8728788706      -18.8603596454       -0.0532357166  MEMB      11              0.0000000000
      2019        40  DOPC      N               5.0089070193       20.6270231525       18.1472036497  MEMB      12              0.0000000000
      2020        40  DOPC      C12             3.5117211062       20.3889789261       17.9621144248  MEMB      12              0.0000000000
      2021        40  DOPC      H12A            3.1640328148       20.8897116610       17.0721070066  MEMB      12              0.0000000000
      2022        40  DOPC      H12B            2.9870230547       20.8072491889       18.8112393250  MEMB      12              0.0000000000
      2023        40  DOPC      C13             5.5198921907       19.7721495789       19.2619624349  MEMB      12              0.0000000000
      2024        40  DOPC      H13A            4.9479480535       19.9544990825       20.1587953146  MEMB      12              0.0000000000
      2025        40  DOPC      H13B            5.3056084723       18.7277145645       19.0106647597  MEMB      12              0.0000000000
      2026        40  DOPC      H13C            6.5809614027       19.8885718163       19.4489972082  MEMB      12              0.0000000000
      2027        40  DOPC      C14             5.2728963507       22.0383157117       18.5203075029  MEMB      12              0.0000000000
      2028        40  DOPC      H14A            4.8207376267       22.2653549431       19.4803073951  MEMB      12              0.0000000000
      2029        40  DOPC      H14B            6.3513520780       22.1860946379       18.6077734672  MEMB      12              0.0000000000
      2030        40  DOPC      H14C            4.8789403503       22.7084777366       17.7698729581  MEMB      12              0.0000000000
      2031        40  DOPC      C15             5.7750670196       20.2508905570       16.9305907652  MEMB      12              0.0000000000
      2032        40  DOPC      H15A            5.4748965058       20.7919794394       16.0462877668  MEMB      12              0.0000000000
      2033        40  DOPC      H15B            5.6211287578       19.1899204982       16.7055179694  MEMB      12              0.0000000000
      2034        40  DOPC      H15C            6.8329035756       20.4057494417       17.1146513408  MEMB      12              0.0000000000
      2035        40  DOPC      C11             3.0158414890       18.9321545757       17.9114498930  MEMB      12              0.0000000000
      2036        40  DOPC      H11A            1.9539628854       18.9285712033       17.5627804528  MEMB      12              0.0000000000
      2037        40  DOPC      H11B            3.5967443732       18.3600102470       17.1695051617  MEMB      12              0.0000000000
      2038        40  DOPC      P               2.3777561229       16.9982561013       19.5158736340  MEMB      12              0.0000000000
      2039        40  DOPC      O13             1.0407821998       17.3924339058       20.0420811130  MEMB      12              0.0000000000
      2040        40  DOPC      O14             3.2141504829       16.1506325698       20.4025655861  MEMB      12              0.0000000000
      2041        40  DOPC      O12             3.1453404326       18.3491981720       19.2052928437  MEMB      12              0.0000000000
      2042        40  DOPC      O11             2.2190140086       16.3786779511       18.0635387426  MEMB      12              0.0000000000
      2043        40  DOPC      C1              2.7188532747       15.0947319646       17.6969161182  MEMB      12              0.0000000000
      2044        40  DOPC      HA              2.0542238163       14.6745944677       16.9076058548  MEMB      12              0.0000000000
      2045        40  DOPC      HB              2.7013728766       14.3815880412       18.5508904469  MEMB      12              0.0000000000
      2046        40  DOPC      C2              4.1482727347       15.1277911617       17.0848704679  MEMB      12              0.0000000000
      2047        40  DOPC      HS              4.8093260872       15.7215979895       17.7557024813  MEMB      12              0.0000000000
      2048        40  DOPC      O21             4.0369149309       15.6677661708       15.7533468795  MEMB      12              0.0000000000
      2049        40  DOPC      C21             4.7051044843       16.7800221193       15.5007094359  MEMB      12              0.0000000000
      2050        40  DOPC      O22             5.5011755346       17.3237569979       16.2514424926  MEMB      12              0.0000000000
      2051        40  DOPC      C22             4.3603174476       17.3040266245       14.1083558767  MEMB      12              0.0000000000
      2052        40  DOPC      H2R             4.0683834538       16.4461087248       13.4682706912  MEMB      12              0.0000000000
      2053        40  DOPC      H2S             5.3059659985       17.7232208938       13.6996646010  MEMB      12              0.0000000000
      2054        40  DOPC      C3              4.7162876425       13.6772636504       17.0089981783  MEMB      12              0.0000000000
      2055        40  DOPC      HX              4.8231006243       13.3105134488       18.0538601028  MEMB      12              0.0000000000
      2056        40  DOPC      HY              5.7351754128       13.6664246711       16.5665982072  MEMB      12              0.0000000000
      2057        40  DOPC      O31             3.7917952736       12.8202605345       16.3073662078  MEMB      12              0.0000000000
      2058        40  DOPC      C31             3.9293153063       12.8909260464       14.9773893783  MEMB      12              0.0000000000
      2059        40  DOPC      O32             4.9574217557       13.1464252280       14.3836885511  MEMB      12              0.0000000000
      2060        40  DOPC      C32             2.5771753611       12.6664792388       14.3280169846  MEMB      12              0.0000000000
      2061        40  DOPC      H2X             2.3208219442       11.5900030117       14.3679692219  MEMB      12              0.0000000000
      2062        40  DOPC      H2Y             1.8192153253       13.2328437582       14.9104792211  MEMB      12              0.0000000000
      2063        40  DOPC      C23             3.2877422770       18.4118536658       14.0423524450  MEMB      12              0.0000000000
      2064        40  DOPC      H3R             3.5802033967       19.2662286572       14.6901262764  MEMB      12              0.0000000000
      2065        40  DOPC      H3S             2.3048978776       18.0253807366       14.3914010570  MEMB      12              0.0000000000
      2066        40  DOPC      C24             3.1445223134       18.9347337136       12.6030125654  MEMB      12              0.0000000000
      2067        40  DOPC      H4R             4.1616012728       19.1706099595       12.2175670954  MEMB      12              0.0000000000
      2068        40  DOPC      H4S             2.5710065783       19.8881350438       12.5988393903  MEMB      12              0.0000000000
      2069        40  DOPC      C25             2.4422278051       17.9305429881       11.6694557900  MEMB      12              0.0000000000
      2070        40  DOPC      H5R             1.4901604005       18.3717511852       11.3018070831  MEMB      12              0.0000000000
      2071        40  DOPC      H5S             2.1606879127       17.0291136875       12.2581512371  MEMB      12              0.0000000000
      2072        40  DOPC      C26             3.2932796535       17.4694739776       10.4730536752  MEMB      12              0.0000000000
      2073        40  DOPC      H6R             2.6845053711       16.7724060366        9.8521507113  MEMB      12              0.0000000000
      2074        40  DOPC      H6S             4.1683820034       16.8953289539       10.8583678414  MEMB      12              0.0000000000
      2075        40  DOPC      C27             3.8207462262       18.6032636839        9.5720791679  MEMB      12              0.0000000000
      2076        40  DOPC      H7R             4.3781311600       18.1420628070        8.7253867762  MEMB      12              0.0000000000
      2077        40  DOPC      H7S             4.5669208845       19.2029801773       10.1378011014  MEMB      12              0.0000000000
      2078        40  DOPC      C28             2.7432948494       19.5623094534        9.0309009985  MEMB      12              0.0000000000
      2079        40  DOPC      H8R             3.2740525480       20.4562744803        8.6323757381  MEMB      12              0.0000000000
      2080        40  DOPC      H8S             2.1028922340       19.9322997846        9.8595621700  MEMB      12              0.0000000000
      2081        40  DOPC      C29             1.9199022703       18.8843814095        7.9656830977  MEMB      12              0.0000000000
      2082        40  DOPC      H9R             1.2100705094       18.1236171155        8.3295803334  MEMB      12              0.0000000000
      2083        40  DOPC      C210            2.0381832988       19.0913093438        6.6419295456  MEMB      12              0.0000000000
      2084        40  DOPC      H10R            1.4305786497       18.4757383368        5.9591340744  MEMB      12              0.0000000000
      2085        40  DOPC      C211            3.0119347320       20.0384167374        5.9738336403  MEMB      12              0.0000000000
      2086        40  DOPC      H11R            3.1095101752       20.9816293053        6.5550119886  MEMB      12              0.0000000000
      2087        40  DOPC      H11S            2.6167274899       20.3344657145        4.9772944019  MEMB      12              0.0000000000
      2088        40  DOPC      C212            4.4277149750       19.4395335552        5.7719734814  MEMB      12              0.0000000000
      2089        40  DOPC      H12R            4.8567986317       19.1604365239        6.7584435131  MEMB      12              0.0000000000
      2090        40  DOPC      H12S            5.0844627968       20.2172100779        5.3241760193  MEMB      12              0.0000000000
      2091        40  DOPC      C213            4.3877386443       18.2124651748        4.8539380400  MEMB      12              0.0000000000
      2092        40  DOPC      H13R            3.9477332956       18.5325836217        3.8864287125  MEMB      12              0.0000000000
      2093        40  DOPC      H13S            3.7072883734       17.4638496162        5.3181321936  MEMB      12              0.0000000000
      2094        40  DOPC      C214            5.7033732538       17.4919244239        4.5215009277  MEMB      12              0.0000000000
      2095        40  DOPC      H14R            6.3287709516       17.3640538196        5.4284627114  MEMB      12              0.0000000000
      2096        40  DOPC      H14S            6.2665816004       18.1144233569        3.7938924997  MEMB      12              0.0000000000
      2097        40  DOPC      C215            5.3545747739       16.1217225579        3.8983011382  MEMB      12              0.0000000000
      2098        40  DOPC      H15R            4.4859783812       16.3300514735        3.2351217462  MEMB      12              0.0000000000
      2099        40  DOPC      H15S            5.0361029553       15.4234268556        4.6985955486  MEMB      12              0.0000000000
      2100        40  DOPC      C216            6.4053587681       15.4740843324        2.9877784409  MEMB      12              0.0000000000
      2101        40  DOPC      H16R            7.3274179840       15.2407214576        3.5373437045  MEMB      12              0.0000000000
      2102        40  DOPC      H16S            6.6387096477       16.2884319823        2.2793778772  MEMB      12              0.0000000000
      2103        40  DOPC      C217            6.0051777423       14.3137472195        2.0361258174  MEMB      12              0.0000000000
      2104        40  DOPC      H17R            6.8522671428       14.1375866802        1.3408221456  MEMB      12              0.0000000000
      2105        40  DOPC      H17S            5.1692852592       14.7088504403        1.4158738761  MEMB      12              0.0000000000
      2106        40  DOPC      C218            5.5807000057       12.9404438267        2.5725164377  MEMB      12              0.0000000000
      2107        40  DOPC      H18R            6.1263772056       12.0994882608        2.1010083695  MEMB      12              0.0000000000
      2108        40  DOPC      H18S            4.5367188178       12.7864917573        2.2790152620  MEMB      12              0.0000000000
      2109        40  DOPC      H18T            5.6164467323       12.8711481927        3.6768792463  MEMB      12              0.0000000000
      2110        40  DOPC      C33             2.5838550067       13.1977725319       12.8844799122  MEMB      12              0.0000000000
      2111        40  DOPC      H3X             3.3067799884       12.6252385155       12.2587805814  MEMB      12              0.0000000000
      2112        40  DOPC      H3Y             2.9069151608       14.2672864432       12.8801410784  MEMB      12              0.0000000000
      2113        40  DOPC      C34             1.1912672516       13.1076182818       12.2702254472  MEMB      12              0.0000000000
      2114        40  DOPC      H4X             0.4474023643       13.5099898129       12.9949344504  MEMB      12              0.0000000000
      2115        40  DOPC      H4Y             0.9421836847       12.0413812298       12.0942648491  MEMB      12              0.0000000000
      2116        40  DOPC      C35             1.0522029359       13.8669468762       10.9475087105  MEMB      12              0.0000000000
      2117        40  DOPC      H5X             1.1412781283       14.9605975758       11.1280711528  MEMB      12              0.0000000000
      2118        40  DOPC      H5Y             0.0244234494       13.6404707221       10.6175731951  MEMB      12              0.0000000000
      2119        40  DOPC      C36             2.0253405366       13.4330704430        9.8395600722  MEMB      12              0.0000000000
      2120        40  DOPC      H6X             3.0139882690       13.9101557716       10.0261830088  MEMB      12              0.0000000000
      2121        40  DOPC      H6Y             2.1545758535       12.3314401314        9.9041217184  MEMB      12              0.0000000000
      2122        40  DOPC      C37             1.5398322622       13.7801076532        8.4184062363  MEMB      12              0.0000000000
      2123        40  DOPC      H7X             0.4880923990       13.4428299073        8.2841805506  MEMB      12              0.0000000000
      2124        40  DOPC      H7Y             1.5399930381       14.8910094371        8.3142724316  MEMB      12              0.0000000000
      2125        40  DOPC      C38             2.3888001994       13.1669947945        7.2748410588  MEMB      12              0.0000000000
      2126        40  DOPC      H8X             3.4596338912       13.3951837055        7.4817194902  MEMB      12              0.0000000000
      2127        40  DOPC      H8Y             2.1222467674       13.7418981078        6.3641271709  MEMB      12              0.0000000000
      2128        40  DOPC      C39             2.1955604573       11.6762014011        7.0443833919  MEMB      12              0.0000000000
      2129        40  DOPC      H9X             2.5944024841       11.0545259640        7.8648675148  MEMB      12              0.0000000000
      2130        40  DOPC      C310            1.6641028405       11.0391662023        5.9653015618  MEMB      12              0.0000000000
      2131        40  DOPC      H10X            1.6845515874        9.9365457497        5.9629084853  MEMB      12              0.0000000000
      2132        40  DOPC      C311            1.1182691575       11.6496152291        4.6840228779  MEMB      12              0.0000000000
      2133        40  DOPC      H11X            1.8602945725       11.3865710332        3.8952653678  MEMB      12              0.0000000000
      2134        40  DOPC      H11Y            1.1212709381       12.7460601153        4.7839631147  MEMB      12              0.0000000000
      2135        40  DOPC      C312           -0.2922613606       11.3040725609        4.0819481669  MEMB      12              0.0000000000
      2136        40  DOPC      H12X           -1.1189228415       11.7469257086        4.6698199707  MEMB      12              0.0000000000
      2137        40  DOPC      H12Y           -0.3707415800       10.1949837113        4.2071985488  MEMB      12              0.0000000000
      2138        40  DOPC      C313           -0.4018421348       11.5628797534        2.5287441443  MEMB      12              0.0000000000
      2139        40  DOPC      H13X            0.6394021054       11.6504205843        2.2444634517  MEMB      12              0.0000000000
      2140        40  DOPC      H13Y           -0.7241169712       10.5911572970        2.0953303430  MEMB      12              0.0000000000
      2141        40  DOPC      C314           -1.2750471280       12.6715432245        1.7939314933  MEMB      12              0.0000000000
      2142        40  DOPC      H14X           -1.9660120173       12.0555907901        1.1682879607  MEMB      12              0.0000000000
      2143        40  DOPC      H14Y           -1.9187184407       13.2001269819        2.5134128243  MEMB      12              0.0000000000
      2144        40  DOPC      C315           -0.6287831272       13.6341817773        0.7009860862  MEMB      12              0.0000000000
      2145        40  DOPC      H15X           -0.3714005427       12.9684539572       -0.1532393681  MEMB      12              0.0000000000
      2146        40  DOPC      H15Y            0.3343453401       14.0835324954        1.0618727062  MEMB      12              0.0000000000
      2147        40  DOPC      C316           -1.4893053180       14.7380254495       -0.0341713050  MEMB      12              0.0000000000
      2148        40  DOPC      H16X           -1.6087367090       14.4865264637       -1.1228228180  MEMB      12              0.0000000000
      2149        40  DOPC      H16Y           -2.5355036518       14.7579934421        0.3703825583  MEMB      12              0.0000000000
      2150        40  DOPC      C317           -0.8505100955       16.1657383125       -0.0814379662  MEMB      12              0.0000000000
      2151        40  DOPC      H17X            0.1842496346       16.1739912106        0.3267395241  MEMB      12              0.0000000000
      2152        40  DOPC      H17Y           -0.7264044280       16.4986627499       -1.1422799749  MEMB      12              0.0000000000
      2153        40  DOPC      C318           -1.7298388192       17.2295339382        0.5763437111  MEMB      12              0.0000000000
      2154        40  DOPC      H18X           -1.2641255873       17.7583450795        1.4316116717  MEMB      12              0.0000000000
      2155        40  DOPC      H18Y           -2.0427825128       17.9970933869       -0.1619111069  MEMB      12              0.0000000000
      2156        40  DOPC      H18Z           -2.6358842165       16.7195770990        0.9604560090  MEMB      12              0.0000000000
      2157        41  DOPC      N             -18.7519590870       10.0617379929       20.9702655996  MEMB      13              0.0000000000
      2158        41  DOPC      C12           -18.6273697416       10.6406990877       19.5654031205  MEMB      13              0.0000000000
      2159        41  DOPC      H12A          -18.2661667338       11.6576435479       19.6107955370  MEMB      13              0.0000000000
      2160        41  DOPC      H12B          -19.6210445346       10.7081942466       19.1120731754  MEMB      13              0.0000000000
      2161        41  DOPC      C13           -19.1770870259        8.6204054389       20.8936607335  MEMB      13              0.0000000000
      2162        41  DOPC      H13A          -20.0065732332        8.5179951329       20.1977181233  MEMB      13              0.0000000000
      2163        41  DOPC      H13B          -18.3750008759        8.0197141190       20.4609040941  MEMB      13              0.0000000000
      2164        41  DOPC      H13C          -19.4673645129        8.2247155689       21.8594074874  MEMB      13              0.0000000000
      2165        41  DOPC      C14           -19.7819612339       10.7946397461       21.7789625270  MEMB      13              0.0000000000
      2166        41  DOPC      H14A          -20.0328291735       10.2181524511       22.6767745094  MEMB      13              0.0000000000
      2167        41  DOPC      H14B          -19.4391995390       11.7770924095       22.0961089980  MEMB      13              0.0000000000
      2168        41  DOPC      H14C          -20.6939747449       10.8962248688       21.2033950252  MEMB      13              0.0000000000
      2169        41  DOPC      C15           -17.4396661212       10.1093944584       21.6758523785  MEMB      13              0.0000000000
      2170        41  DOPC      H15A          -17.5668083354        9.7938712231       22.7057109952  MEMB      13              0.0000000000
      2171        41  DOPC      H15B          -17.0373121790       11.1179562197       21.6840607753  MEMB      13              0.0000000000
      2172        41  DOPC      H15C          -16.7559136308        9.4151479736       21.1991667214  MEMB      13              0.0000000000
      2173        41  DOPC      C11           -17.7611802087        9.8520591355       18.5417061389  MEMB      13              0.0000000000
      2174        41  DOPC      H11A          -17.5741016013       10.4922747264       17.6450684087  MEMB      13              0.0000000000
      2175        41  DOPC      H11B          -16.7688757373        9.6321977216       18.9904088074  MEMB      13              0.0000000000
      2176        41  DOPC      P             -19.6748583632        8.6418615966       17.2389260493  MEMB      13              0.0000000000
      2177        41  DOPC      O13           -20.6032319593        9.6454927829       17.8156843472  MEMB      13              0.0000000000
      2178        41  DOPC      O14           -20.1926459755        7.2636666347       17.1140748667  MEMB      13              0.0000000000
      2179        41  DOPC      O12           -18.3704063191        8.6194687737       18.1621818768  MEMB      13              0.0000000000
      2180        41  DOPC      O11           -19.0732611817        9.1741911630       15.8594065680  MEMB      13              0.0000000000
      2181        41  DOPC      C1            -18.1474120158        8.3514892440       15.1353153986  MEMB      13              0.0000000000
      2182        41  DOPC      HA            -18.6942844070        7.5453691896       14.5971196426  MEMB      13              0.0000000000
      2183        41  DOPC      HB            -17.4188554196        7.8655994895       15.8300874225  MEMB      13              0.0000000000
      2184        41  DOPC      C2            -17.2760150674        9.1420009775       14.0962646182  MEMB      13              0.0000000000
      2185        41  DOPC      HS            -16.7596219322        9.9390810376       14.6821551901  MEMB      13              0.0000000000
      2186        41  DOPC      O21           -18.0701154086        9.7240531038       13.0301279686  MEMB      13              0.0000000000
      2187        41  DOPC      C21           -17.4291406156       10.6925921819       12.3588130480  MEMB      13              0.0000000000
      2188        41  DOPC      O22           -16.3053331712       11.0877211198       12.6158574963  MEMB      13              0.0000000000
      2189        41  DOPC      C22           -18.3443925273       11.2688605691       11.2794825107  MEMB      13              0.0000000000
      2190        41  DOPC      H2R           -19.0855462664       11.9194692150       11.7908905476  MEMB      13              0.0000000000
      2191        41  DOPC      H2S           -18.8879034342       10.4347071688       10.7946221225  MEMB      13              0.0000000000
      2192        41  DOPC      C3            -16.1952084773        8.1909005693       13.4967922175  MEMB      13              0.0000000000
      2193        41  DOPC      HX            -15.4521550820        8.0086774099       14.2959055961  MEMB      13              0.0000000000
      2194        41  DOPC      HY            -15.6418067927        8.7209834168       12.6898713092  MEMB      13              0.0000000000
      2195        41  DOPC      O31           -16.7827489871        6.9284731839       13.0881418841  MEMB      13              0.0000000000
      2196        41  DOPC      C31           -16.8173776581        6.7157455697       11.7747735846  MEMB      13              0.0000000000
      2197        41  DOPC      O32           -16.1696221411        7.3256713618       10.9445533626  MEMB      13              0.0000000000
      2198        41  DOPC      C32           -17.7950321275        5.5883593573       11.4302276004  MEMB      13              0.0000000000
      2199        41  DOPC      H2X           -17.1851353641        4.7002474717       11.1652982213  MEMB      13              0.0000000000
      2200        41  DOPC      H2Y           -18.4221571844        5.3464823254       12.3124109431  MEMB      13              0.0000000000
      2201        41  DOPC      C23           -17.5659598532       12.1036442915       10.2361858892  MEMB      13              0.0000000000
      2202        41  DOPC      H3R           -17.0796793761       12.9721649440       10.7401347616  MEMB      13              0.0000000000
      2203        41  DOPC      H3S           -18.2871031807       12.5120586379        9.4923316383  MEMB      13              0.0000000000
      2204        41  DOPC      C24           -16.4837727526       11.3164122159        9.4811135680  MEMB      13              0.0000000000
      2205        41  DOPC      H4R           -15.6903419574       10.9875507976       10.1901158763  MEMB      13              0.0000000000
      2206        41  DOPC      H4S           -15.9912785848       12.0023589871        8.7552385440  MEMB      13              0.0000000000
      2207        41  DOPC      C25           -16.9848815632       10.0821714536        8.7157830903  MEMB      13              0.0000000000
      2208        41  DOPC      H5R           -17.7515691690       10.4011661569        7.9780034622  MEMB      13              0.0000000000
      2209        41  DOPC      H5S           -17.4479459240        9.3450170127        9.4077498488  MEMB      13              0.0000000000
      2210        41  DOPC      C26           -15.8095730480        9.4013762534        8.0043957162  MEMB      13              0.0000000000
      2211        41  DOPC      H6R           -15.1586812759        8.9340081872        8.7789349414  MEMB      13              0.0000000000
      2212        41  DOPC      H6S           -15.2226346414       10.2012403647        7.5053998357  MEMB      13              0.0000000000
      2213        41  DOPC      C27           -16.1724479868        8.3420031841        6.9556125115  MEMB      13              0.0000000000
      2214        41  DOPC      H7R           -16.7951830087        7.5529211221        7.4332416832  MEMB      13              0.0000000000
      2215        41  DOPC      H7S           -15.2333787238        7.8578482493        6.5977979542  MEMB      13              0.0000000000
      2216        41  DOPC      C28           -16.9205320305        8.9073060781        5.7365417972  MEMB      13              0.0000000000
      2217        41  DOPC      H8R           -17.9172087484        9.2612037064        6.0791652960  MEMB      13              0.0000000000
      2218        41  DOPC      H8S           -17.1045633188        8.0634438659        5.0353850385  MEMB      13              0.0000000000
      2219        41  DOPC      C29           -16.2055286008       10.0337439895        5.0400413855  MEMB      13              0.0000000000
      2220        41  DOPC      H9R           -16.4326181498       11.0385354835        5.4269264780  MEMB      13              0.0000000000
      2221        41  DOPC      C210          -15.3101357338        9.9126072781        4.0491676416  MEMB      13              0.0000000000
      2222        41  DOPC      H10R          -14.9016945583       10.8295226395        3.6011504143  MEMB      13              0.0000000000
      2223        41  DOPC      C211          -14.8263995071        8.6311835545        3.4193789047  MEMB      13              0.0000000000
      2224        41  DOPC      H11R          -15.3460319531        7.7348988036        3.8238900299  MEMB      13              0.0000000000
      2225        41  DOPC      H11S          -13.7434128045        8.4928209835        3.6373955011  MEMB      13              0.0000000000
      2226        41  DOPC      C212          -15.0186521228        8.6618442569        1.8937816457  MEMB      13              0.0000000000
      2227        41  DOPC      H12R          -14.4763137500        7.7881250549        1.4735426987  MEMB      13              0.0000000000
      2228        41  DOPC      H12S          -14.5279816940        9.5642700215        1.4665070769  MEMB      13              0.0000000000
      2229        41  DOPC      C213          -16.4983653446        8.6288774945        1.4635627160  MEMB      13              0.0000000000
      2230        41  DOPC      H13R          -16.5920006082        9.0460275329        0.4380081467  MEMB      13              0.0000000000
      2231        41  DOPC      H13S          -17.1051947669        9.2850132755        2.1259521561  MEMB      13              0.0000000000
      2232        41  DOPC      C214          -17.0910359543        7.2113952294        1.4800776395  MEMB      13              0.0000000000
      2233        41  DOPC      H14R          -18.1966127685        7.2609341085        1.3570936381  MEMB      13              0.0000000000
      2234        41  DOPC      H14S          -16.8858028526        6.7466176101        2.4700462590  MEMB      13              0.0000000000
      2235        41  DOPC      C215          -16.5206735604        6.3281341555        0.3638863599  MEMB      13              0.0000000000
      2236        41  DOPC      H15R          -16.7216298995        5.2631798577        0.6134228656  MEMB      13              0.0000000000
      2237        41  DOPC      H15S          -15.4210913943        6.4527029909        0.2987984425  MEMB      13              0.0000000000
      2238        41  DOPC      C216          -17.1068029626        6.6683708523       -1.0092538533  MEMB      13              0.0000000000
      2239        41  DOPC      H16R          -17.0591356348        7.7681019911       -1.1723184866  MEMB      13              0.0000000000
      2240        41  DOPC      H16S          -18.1785112120        6.3945831387       -0.9986465013  MEMB      13              0.0000000000
      2241        41  DOPC      C217          -16.3510606475        6.0076654350       -2.1716254710  MEMB      13              0.0000000000
      2242        41  DOPC      H17R          -15.3212904185        6.4285522670       -2.1593970627  MEMB      13              0.0000000000
      2243        41  DOPC      H17S          -16.8161679928        6.3308883746       -3.1296487221  MEMB      13              0.0000000000
      2244        41  DOPC      C218          -16.2454702198        4.4771551106       -2.1442670918  MEMB      13              0.0000000000
      2245        41  DOPC      H18R          -17.0427078453        4.0147221087       -2.7630038596  MEMB      13              0.0000000000
      2246        41  DOPC      H18S          -16.3352638236        4.0757984853       -1.1162083089  MEMB      13              0.0000000000
      2247        41  DOPC      H18T          -15.2664846833        4.1507952744       -2.5518467507  MEMB      13              0.0000000000
      2248        41  DOPC      C33           -18.6821655720        5.9793526950       10.2232056310  MEMB      13              0.0000000000
      2249        41  DOPC      H3X           -19.2216106591        5.0777755357        9.8565700352  MEMB      13              0.0000000000
      2250        41  DOPC      H3Y           -18.0483930122        6.3447042568        9.3814667409  MEMB      13              0.0000000000
      2251        41  DOPC      C34           -19.7200566275        7.0526354785       10.5806519070  MEMB      13              0.0000000000
      2252        41  DOPC      H4X           -19.2065033510        7.8930083439       11.1037985837  MEMB      13              0.0000000000
      2253        41  DOPC      H4Y           -20.4687861510        6.6321187281       11.2890921629  MEMB      13              0.0000000000
      2254        41  DOPC      C35           -20.4393241436        7.6549363860        9.3631201345  MEMB      13              0.0000000000
      2255        41  DOPC      H5X           -19.6812359149        8.1803157700        8.7388386128  MEMB      13              0.0000000000
      2256        41  DOPC      H5Y           -21.1647577633        8.4181455429        9.7270736602  MEMB      13              0.0000000000
      2257        41  DOPC      C36           -21.2044626695        6.6482221488        8.4878225659  MEMB      13              0.0000000000
      2258        41  DOPC      H6X           -20.4841617438        5.9587414070        7.9972903350  MEMB      13              0.0000000000
      2259        41  DOPC      H6Y           -21.8775464368        6.0304236103        9.1256719606  MEMB      13              0.0000000000
      2260        41  DOPC      C37           -22.0673120289        7.3397824099        7.4133461718  MEMB      13              0.0000000000
      2261        41  DOPC      H7X           -22.5990815318        6.5726860557        6.8062619869  MEMB      13              0.0000000000
      2262        41  DOPC      H7Y           -22.8447523947        7.9373059407        7.9425289992  MEMB      13              0.0000000000
      2263        41  DOPC      C38           -21.2970373666        8.2920014491        6.4755840005  MEMB      13              0.0000000000
      2264        41  DOPC      H8X           -20.7947190086        9.0802848684        7.0781758511  MEMB      13              0.0000000000
      2265        41  DOPC      H8Y           -22.0471664089        8.8111443593        5.8359819506  MEMB      13              0.0000000000
      2266        41  DOPC      C39           -20.2896919828        7.5677007792        5.6212707038  MEMB      13              0.0000000000
      2267        41  DOPC      H9X           -19.9202651233        6.6119894285        6.0235128218  MEMB      13              0.0000000000
      2268        41  DOPC      C310          -19.7737494459        8.0329246216        4.4713242915  MEMB      13              0.0000000000
      2269        41  DOPC      H10X          -19.0446542918        7.4152299440        3.9244516728  MEMB      13              0.0000000000
      2270        41  DOPC      C311          -20.0966389969        9.3564496766        3.8227326502  MEMB      13              0.0000000000
      2271        41  DOPC      H11X          -19.1651540194        9.9420954946        3.6529233606  MEMB      13              0.0000000000
      2272        41  DOPC      H11Y          -20.7574425380        9.9839323931        4.4611035144  MEMB      13              0.0000000000
      2273        41  DOPC      C312          -20.8001450217        9.1102802643        2.4848785710  MEMB      13              0.0000000000
      2274        41  DOPC      H12X          -21.6521761668        8.4131318411        2.6625152458  MEMB      13              0.0000000000
      2275        41  DOPC      H12Y          -20.0959692359        8.6218294292        1.7731977188  MEMB      13              0.0000000000
      2276        41  DOPC      C313          -21.3764451143       10.3796852517        1.8431248659  MEMB      13              0.0000000000
      2277        41  DOPC      H13X          -22.0216603318       10.8880895293        2.5939313743  MEMB      13              0.0000000000
      2278        41  DOPC      H13Y          -20.5514999550       11.0772780973        1.5777499711  MEMB      13              0.0000000000
      2279        41  DOPC      C314          -22.2129246050       10.0652901904        0.5884400487  MEMB      13              0.0000000000
      2280        41  DOPC      H14X          -22.9663047826        9.2915863154        0.8450922421  MEMB      13              0.0000000000
      2281        41  DOPC      H14Y          -22.8022959156       10.9638999875        0.3045122136  MEMB      13              0.0000000000
      2282        41  DOPC      C315          -21.3311815098        9.6334288919       -0.6025451447  MEMB      13              0.0000000000
      2283        41  DOPC      H15X          -20.2632942684        9.7014005905       -0.2975963874  MEMB      13              0.0000000000
      2284        41  DOPC      H15Y          -21.4680066578       10.3395350223       -1.4519012159  MEMB      13              0.0000000000
      2285        41  DOPC      C316          -21.6184880603        8.2409835112       -1.1708174542  MEMB      13              0.0000000000
      2286        41  DOPC      H16X          -22.6047622338        8.2893859894       -1.6868984477  MEMB      13              0.0000000000
      2287        41  DOPC      H16Y          -20.8543879965        8.0019893085       -1.9440639557  MEMB      13              0.0000000000
      2288        41  DOPC      C317          -21.6581736712        7.1088518167       -0.1410489036  MEMB      13              0.0000000000
      2289        41  DOPC      H17X          -20.6346900153        6.7075687945        0.0338142306  MEMB      13              0.0000000000
      2290        41  DOPC      H17Y          -22.0272574668        7.4773151909        0.8356657417  MEMB      13              0.0000000000
      2291        41  DOPC      C318          -22.6241908421        6.0128751047       -0.5673944822  MEMB      13              0.0000000000
      2292        41  DOPC      H18X          -22.8316676366        5.3148177122        0.2695617992  MEMB      13              0.0000000000
      2293        41  DOPC      H18Y          -23.5784012225        6.4797144857       -0.8848380695  MEMB      13              0.0000000000
      2294        41  DOPC      H18Z          -22.2060826587        5.4408376024       -1.4174914674  MEMB      13              0.0000000000
      2295        42  DOPC      N              16.9256653975       -3.3955308044       20.6062491667  MEMB      14              0.0000000000
      2296        42  DOPC      C12            18.4005467722       -3.6165368607       20.9227472941  MEMB      14              0.0000000000
      2297        42  DOPC      H12A           18.4986207577       -4.3256676843       21.7358161549  MEMB      14              0.0000000000
      2298        42  DOPC      H12B           18.8041783515       -2.6802373725       21.3076133157  MEMB      14              0.0000000000
      2299        42  DOPC      C13            16.3459344665       -4.4932288863       19.7616152716  MEMB      14              0.0000000000
      2300        42  DOPC      H13A           15.3432392990       -4.2722162775       19.4122361639  MEMB      14              0.0000000000
      2301        42  DOPC      H13B           16.9599818718       -4.5997130604       18.8683568022  MEMB      14              0.0000000000
      2302        42  DOPC      H13C           16.3348831075       -5.4408174519       20.2781044803  MEMB      14              0.0000000000
      2303        42  DOPC      C14            16.7271651578       -2.0769566389       19.9085621618  MEMB      14              0.0000000000
      2304        42  DOPC      H14A           15.6792240096       -1.8449076887       19.7479314916  MEMB      14              0.0000000000
      2305        42  DOPC      H14B           17.0749135835       -1.2615490755       20.5446917614  MEMB      14              0.0000000000
      2306        42  DOPC      H14C           17.2513967626       -2.0361917260       18.9593880808  MEMB      14              0.0000000000
      2307        42  DOPC      C15            16.2100609748       -3.2702452596       21.9213297408  MEMB      14              0.0000000000
      2308        42  DOPC      H15A           16.4687690518       -2.3288548453       22.4126069364  MEMB      14              0.0000000000
      2309        42  DOPC      H15B           16.4047613171       -4.0785405079       22.6122224189  MEMB      14              0.0000000000
      2310        42  DOPC      H15C           15.1478274455       -3.2149419711       21.7414863712  MEMB      14              0.0000000000
      2311        42  DOPC      C11            19.3488703889       -4.0483552654       19.7929903807  MEMB      14              0.0000000000
      2312        42  DOPC      H11A           20.3187851243       -4.3662810780       20.2452507449  MEMB      14              0.0000000000
      2313        42  DOPC      H11B           18.9267214259       -4.9339299114       19.2585725468  MEMB      14              0.0000000000
      2314        42  DOPC      P              20.3425290912       -3.2212308286       17.5832583320  MEMB      14              0.0000000000
      2315        42  DOPC      O13            21.5903481477       -3.9255248939       17.9777865912  MEMB      14              0.0000000000
      2316        42  DOPC      O14            20.4542823243       -1.9846153478       16.7854153986  MEMB      14              0.0000000000
      2317        42  DOPC      O12            19.5716508279       -2.9296794295       18.9372387664  MEMB      14              0.0000000000
      2318        42  DOPC      O11            19.3756789425       -4.2518988881       16.8846214015  MEMB      14              0.0000000000
      2319        42  DOPC      C1             18.0868276823       -3.8848699538       16.4027533118  MEMB      14              0.0000000000
      2320        42  DOPC      HA             18.1338522970       -2.9862711843       15.7406767371  MEMB      14              0.0000000000
      2321        42  DOPC      HB             17.3980911298       -3.6711106128       17.2442066266  MEMB      14              0.0000000000
      2322        42  DOPC      C2             17.5814917565       -5.0858454972       15.5859805767  MEMB      14              0.0000000000
      2323        42  DOPC      HS             17.9696215642       -5.9878641963       16.1277227625  MEMB      14              0.0000000000
      2324        42  DOPC      O21            18.1075926692       -4.9219927498       14.2559559976  MEMB      14              0.0000000000
      2325        42  DOPC      C21            18.7330785118       -5.9732704845       13.7960627881  MEMB      14              0.0000000000
      2326        42  DOPC      O22            18.8975958825       -7.0289970781       14.3847853775  MEMB      14              0.0000000000
      2327        42  DOPC      C22            19.2527330721       -5.6885183491       12.3944557291  MEMB      14              0.0000000000
      2328        42  DOPC      H2R            20.2838421288       -6.1020292053       12.3622848123  MEMB      14              0.0000000000
      2329        42  DOPC      H2S            19.3104310262       -4.5978012436       12.2129715666  MEMB      14              0.0000000000
      2330        42  DOPC      C3             16.0409069762       -5.2676483279       15.5090118143  MEMB      14              0.0000000000
      2331        42  DOPC      HX             15.6208559164       -5.3694218027       16.5324290974  MEMB      14              0.0000000000
      2332        42  DOPC      HY             15.8657770562       -6.2392424566       14.9828624937  MEMB      14              0.0000000000
      2333        42  DOPC      O31            15.4260963423       -4.2220669559       14.7417166095  MEMB      14              0.0000000000
      2334        42  DOPC      C31            14.8336179451       -3.2238595446       15.3446756916  MEMB      14              0.0000000000
      2335        42  DOPC      O32            14.5859669709       -3.1508462662       16.5394102358  MEMB      14              0.0000000000
      2336        42  DOPC      C32            14.4858541289       -2.1932836404       14.2770679446  MEMB      14              0.0000000000
      2337        42  DOPC      H2X            14.5294352619       -2.6501386505       13.2667602401  MEMB      14              0.0000000000
      2338        42  DOPC      H2Y            13.4440693548       -1.8642267404       14.4621407809  MEMB      14              0.0000000000
      2339        42  DOPC      C23            18.4204314600       -6.3917420990       11.3028261079  MEMB      14              0.0000000000
      2340        42  DOPC      H3R            17.9447257461       -7.3279676739       11.6729493891  MEMB      14              0.0000000000
      2341        42  DOPC      H3S            19.1428440567       -6.6721744903       10.5036059788  MEMB      14              0.0000000000
      2342        42  DOPC      C24            17.3901409164       -5.5018370703       10.5937322383  MEMB      14              0.0000000000
      2343        42  DOPC      H4R            16.9912404668       -6.1102373360        9.7516178096  MEMB      14              0.0000000000
      2344        42  DOPC      H4S            17.9051953541       -4.6234792716       10.1480478935  MEMB      14              0.0000000000
      2345        42  DOPC      C25            16.2210815194       -4.9810494411       11.4387137806  MEMB      14              0.0000000000
      2346        42  DOPC      H5R            16.6124547207       -4.3560266803       12.2729986363  MEMB      14              0.0000000000
      2347        42  DOPC      H5S            15.6628752722       -5.8317670497       11.8862723490  MEMB      14              0.0000000000
      2348        42  DOPC      C26            15.2652487567       -4.1250683778       10.5947849335  MEMB      14              0.0000000000
      2349        42  DOPC      H6R            15.8424182960       -3.2752272455       10.1634637740  MEMB      14              0.0000000000
      2350        42  DOPC      H6S            14.4647489255       -3.7024825714       11.2415208617  MEMB      14              0.0000000000
      2351        42  DOPC      C27            14.6024240275       -4.8992767227        9.4482721756  MEMB      14              0.0000000000
      2352        42  DOPC      H7R            14.0367599042       -5.7556371457        9.8808724096  MEMB      14              0.0000000000
      2353        42  DOPC      H7S            15.3676739693       -5.3215378517        8.7576168508  MEMB      14              0.0000000000
      2354        42  DOPC      C28            13.6474535793       -4.0217180807        8.6348935207  MEMB      14              0.0000000000
      2355        42  DOPC      H8R            12.9250954457       -3.5150161370        9.3065023891  MEMB      14              0.0000000000
      2356        42  DOPC      H8S            13.0722363572       -4.7158767844        7.9856676707  MEMB      14              0.0000000000
      2357        42  DOPC      C29            14.4029287848       -3.0183994478        7.8120403679  MEMB      14              0.0000000000
      2358        42  DOPC      H9R            14.6889625404       -2.0809337867        8.3116816850  MEMB      14              0.0000000000
      2359        42  DOPC      C210           14.7405424178       -3.2395087782        6.5374774268  MEMB      14              0.0000000000
      2360        42  DOPC      H10R           15.3492154136       -2.5018557470        5.9932486150  MEMB      14              0.0000000000
      2361        42  DOPC      C211           14.3963613971       -4.5087215137        5.8018976592  MEMB      14              0.0000000000
      2362        42  DOPC      H11R           13.3051371437       -4.7206722388        5.8369291079  MEMB      14              0.0000000000
      2363        42  DOPC      H11S           14.9222662845       -5.3751534697        6.2661415365  MEMB      14              0.0000000000
      2364        42  DOPC      C212           14.8305097833       -4.4344817848        4.3416229717  MEMB      14              0.0000000000
      2365        42  DOPC      H12R           14.5465743692       -5.3760813368        3.8184498339  MEMB      14              0.0000000000
      2366        42  DOPC      H12S           15.9402291803       -4.3732042763        4.3631161115  MEMB      14              0.0000000000
      2367        42  DOPC      C213           14.2589793863       -3.2426814958        3.5601897299  MEMB      14              0.0000000000
      2368        42  DOPC      H13R           14.5753099690       -2.2861915610        4.0264175426  MEMB      14              0.0000000000
      2369        42  DOPC      H13S           13.1479322320       -3.2623997568        3.6006000148  MEMB      14              0.0000000000
      2370        42  DOPC      C214           14.6995876696       -3.2263403472        2.0920814422  MEMB      14              0.0000000000
      2371        42  DOPC      H14R           14.5680020401       -2.1963721179        1.6999894467  MEMB      14              0.0000000000
      2372        42  DOPC      H14S           14.0329167966       -3.8955624973        1.5159725249  MEMB      14              0.0000000000
      2373        42  DOPC      C215           16.1515803356       -3.6450763250        1.8391280641  MEMB      14              0.0000000000
      2374        42  DOPC      H15R           16.4815823347       -4.4881000731        2.4793825762  MEMB      14              0.0000000000
      2375        42  DOPC      H15S           16.7887809103       -2.7664150613        2.0404319273  MEMB      14              0.0000000000
      2376        42  DOPC      C216           16.4140224390       -4.1239026042        0.4179397352  MEMB      14              0.0000000000
      2377        42  DOPC      H16R           15.7143039698       -4.9546773960        0.1882387401  MEMB      14              0.0000000000
      2378        42  DOPC      H16S           17.4413263997       -4.5272351307        0.4021193921  MEMB      14              0.0000000000
      2379        42  DOPC      C217           16.2889380050       -3.0082220718       -0.6069440622  MEMB      14              0.0000000000
      2380        42  DOPC      H17R           17.2351170838       -2.4230130461       -0.6561836347  MEMB      14              0.0000000000
      2381        42  DOPC      H17S           15.4842122355       -2.3342399166       -0.2517906720  MEMB      14              0.0000000000
      2382        42  DOPC      C218           15.8771440551       -3.4872563021       -1.9860358103  MEMB      14              0.0000000000
      2383        42  DOPC      H18R           14.8356900052       -3.8741568269       -1.9301672791  MEMB      14              0.0000000000
      2384        42  DOPC      H18S           16.5318998145       -4.2989190579       -2.3560444810  MEMB      14              0.0000000000
      2385        42  DOPC      H18T           15.9110246194       -2.6429676059       -2.7067870419  MEMB      14              0.0000000000
      2386        42  DOPC      C33            15.4483198229       -0.9949434856       14.3403033363  MEMB      14              0.0000000000
      2387        42  DOPC      H3X            15.6695713350       -0.7709037767       15.4102883736  MEMB      14              0.0000000000
      2388        42  DOPC      H3Y            14.9352379837       -0.0991763717       13.9215826218  MEMB      14              0.0000000000
      2389        42  DOPC      C34            16.7758426726       -1.1909616751       13.5804973902  MEMB      14              0.0000000000
      2390        42  DOPC      H4X            17.1333534068       -2.2397901900       13.6728879111  MEMB      14              0.0000000000
      2391        42  DOPC      H4Y            17.5397418507       -0.5326442004       14.0562128530  MEMB      14              0.0000000000
      2392        42  DOPC      C35            16.7003939873       -0.7887253817       12.0963817019  MEMB      14              0.0000000000
      2393        42  DOPC      H5X            16.0963905407        0.1422156877       12.0208966111  MEMB      14              0.0000000000
      2394        42  DOPC      H5Y            16.1571312091       -1.5730860346       11.5297909030  MEMB      14              0.0000000000
      2395        42  DOPC      C36            18.0717412547       -0.5263695702       11.4372621969  MEMB      14              0.0000000000
      2396        42  DOPC      H6X            17.9042074214       -0.2274618813       10.3781742022  MEMB      14              0.0000000000
      2397        42  DOPC      H6Y            18.5618034495        0.3282469167       11.9545443288  MEMB      14              0.0000000000
      2398        42  DOPC      C37            19.0246148775       -1.7342859977       11.4659199161  MEMB      14              0.0000000000
      2399        42  DOPC      H7X            19.1869389229       -2.0194592007       12.5299651156  MEMB      14              0.0000000000
      2400        42  DOPC      H7Y            18.5306408677       -2.5907831245       10.9566725500  MEMB      14              0.0000000000
      2401        42  DOPC      C38            20.3955392318       -1.4662911238       10.8059652503  MEMB      14              0.0000000000
      2402        42  DOPC      H8X            20.8416604535       -0.5668289977       11.2854698210  MEMB      14              0.0000000000
      2403        42  DOPC      H8Y            20.2344959177       -1.2140398290        9.7339570235  MEMB      14              0.0000000000
      2404        42  DOPC      C39            21.3414736780       -2.6335612132       10.9672581580  MEMB      14              0.0000000000
      2405        42  DOPC      H9X            21.6854587267       -2.7936375282       11.9998732455  MEMB      14              0.0000000000
      2406        42  DOPC      C310           21.7574881634       -3.4921700603       10.0167141826  MEMB      14              0.0000000000
      2407        42  DOPC      H10X           22.4457234925       -4.3026852694       10.3052414012  MEMB      14              0.0000000000
      2408        42  DOPC      C311           21.3705195218       -3.4883365774        8.5575922104  MEMB      14              0.0000000000
      2409        42  DOPC      H11X           22.0682597258       -4.1406870192        7.9848904822  MEMB      14              0.0000000000
      2410        42  DOPC      H11Y           21.4481342717       -2.4698444220        8.1161984149  MEMB      14              0.0000000000
      2411        42  DOPC      C312           19.9399767101       -4.0228019608        8.3593416468  MEMB      14              0.0000000000
      2412        42  DOPC      H12X           19.2087804523       -3.2829763666        8.7568577396  MEMB      14              0.0000000000
      2413        42  DOPC      H12Y           19.8236736731       -4.9679490374        8.9401172657  MEMB      14              0.0000000000
      2414        42  DOPC      C313           19.5840849209       -4.3454156845        6.9006756744  MEMB      14              0.0000000000
      2415        42  DOPC      H13X           20.3544215042       -5.0211562596        6.4684902511  MEMB      14              0.0000000000
      2416        42  DOPC      H13Y           18.6120483830       -4.8930714657        6.8979088103  MEMB      14              0.0000000000
      2417        42  DOPC      C314           19.4235760053       -3.1133174887        6.0055530183  MEMB      14              0.0000000000
      2418        42  DOPC      H14X           18.6309171646       -2.4666883984        6.4434673438  MEMB      14              0.0000000000
      2419        42  DOPC      H14Y           20.3702422283       -2.5301239953        5.9832694792  MEMB      14              0.0000000000
      2420        42  DOPC      C315           19.0403657893       -3.5162638478        4.5755250299  MEMB      14              0.0000000000
      2421        42  DOPC      H15X           18.0888000788       -4.0908782799        4.6063218991  MEMB      14              0.0000000000
      2422        42  DOPC      H15Y           19.8282955941       -4.1961705293        4.1786534756  MEMB      14              0.0000000000
      2423        42  DOPC      C316           18.8846488071       -2.3310716579        3.6122520583  MEMB      14              0.0000000000
      2424        42  DOPC      H16X           19.8545296730       -1.8029431806        3.5480443679  MEMB      14              0.0000000000
      2425        42  DOPC      H16Y           18.7014693733       -2.7379901868        2.5946914417  MEMB      14              0.0000000000
      2426        42  DOPC      C317           17.7540959246       -1.3640831686        4.0240651516  MEMB      14              0.0000000000
      2427        42  DOPC      H17X           16.7992436037       -1.9292790777        4.0542525200  MEMB      14              0.0000000000
      2428        42  DOPC      H17Y           17.9264287101       -1.0095440786        5.0623495059  MEMB      14              0.0000000000
      2429        42  DOPC      C318           17.5812268372       -0.1371330453        3.1209504383  MEMB      14              0.0000000000
      2430        42  DOPC      H18X           18.2433945443        0.6856469100        3.4449293424  MEMB      14              0.0000000000
      2431        42  DOPC      H18Y           17.8343378211       -0.3736768416        2.0675171862  MEMB      14              0.0000000000
      2432        42  DOPC      H18Z           16.5450246616        0.2577088131        3.1737506264  MEMB      14              0.0000000000
      2433        43  DOPC      N               8.8325628351      -16.3862240234       19.7802588183  MEMB      15              0.0000000000
      2434        43  DOPC      C12            10.0063104305      -16.0512184784       18.8797519918  MEMB      15              0.0000000000
      2435        43  DOPC      H12A           10.2360428767      -14.9993495234       18.9738536834  MEMB      15              0.0000000000
      2436        43  DOPC      H12B            9.7388963035      -16.2368886530       17.8431639880  MEMB      15              0.0000000000
      2437        43  DOPC      C13             7.9501689040      -15.2281914206       19.8887594364  MEMB      15              0.0000000000
      2438        43  DOPC      H13A            7.0839021240      -15.4236067733       20.5280935113  MEMB      15              0.0000000000
      2439        43  DOPC      H13B            8.4490875523      -14.3649322746       20.3096290889  MEMB      15              0.0000000000
      2440        43  DOPC      H13C            7.5010763985      -14.9640059876       18.9297854945  MEMB      15              0.0000000000
      2441        43  DOPC      C14             9.3259836453      -16.7354317396       21.1439623300  MEMB      15              0.0000000000
      2442        43  DOPC      H14A            8.5341309163      -17.0554476798       21.8070553340  MEMB      15              0.0000000000
      2443        43  DOPC      H14B           10.0245758801      -17.5650767448       21.0233627458  MEMB      15              0.0000000000
      2444        43  DOPC      H14C            9.8583102513      -15.9098429921       21.5970592393  MEMB      15              0.0000000000
      2445        43  DOPC      C15             8.0961566893      -17.5699871063       19.2333993150  MEMB      15              0.0000000000
      2446        43  DOPC      H15A            8.8389701207      -18.3297705646       18.9790079596  MEMB      15              0.0000000000
      2447        43  DOPC      H15B            7.5358790470      -17.3031472190       18.3493022191  MEMB      15              0.0000000000
      2448        43  DOPC      H15C            7.3856014901      -17.9838426233       19.9444786597  MEMB      15              0.0000000000
      2449        43  DOPC      C11            11.2959112441      -16.8245523595       19.1881391490  MEMB      15              0.0000000000
      2450        43  DOPC      H11A           12.0929511933      -16.5182675612       18.4624444150  MEMB      15              0.0000000000
      2451        43  DOPC      H11B           11.6727402903      -16.4918830836       20.1739749154  MEMB      15              0.0000000000
      2452        43  DOPC      P              11.7998226129      -19.1433651710       18.1643612360  MEMB      15              0.0000000000
      2453        43  DOPC      O13            11.1128797403      -20.4534240121       18.0846499093  MEMB      15              0.0000000000
      2454        43  DOPC      O14            13.2266774388      -19.1119741794       18.5525933160  MEMB      15              0.0000000000
      2455        43  DOPC      O12            11.0266710181      -18.2339972217       19.2229353554  MEMB      15              0.0000000000
      2456        43  DOPC      O11            11.4770348879      -18.2640854457       16.8648519796  MEMB      15              0.0000000000
      2457        43  DOPC      C1             10.1839576227      -18.2696240313       16.2452291062  MEMB      15              0.0000000000
      2458        43  DOPC      HA              9.9758835495      -17.2665895132       15.8052587130  MEMB      15              0.0000000000
      2459        43  DOPC      HB              9.3615263255      -18.5022319942       16.9564964779  MEMB      15              0.0000000000
      2460        43  DOPC      C2             10.1368678055      -19.2996704542       15.0943409397  MEMB      15              0.0000000000
      2461        43  DOPC      HS             10.4091397770      -20.2802231164       15.5462721585  MEMB      15              0.0000000000
      2462        43  DOPC      O21            11.0569321949      -18.8671655100       14.0847098427  MEMB      15              0.0000000000
      2463        43  DOPC      C21            12.0403930917      -19.6807967394       13.7794410147  MEMB      15              0.0000000000
      2464        43  DOPC      O22            12.2806145582      -20.7680492125       14.2689607169  MEMB      15              0.0000000000
      2465        43  DOPC      C22            12.7599192564      -19.1125379648       12.5579910290  MEMB      15              0.0000000000
      2466        43  DOPC      H2R            13.8460617354      -19.1332455524       12.7821912505  MEMB      15              0.0000000000
      2467        43  DOPC      H2S            12.4871990167      -18.0520621715       12.4187798936  MEMB      15              0.0000000000
      2468        43  DOPC      C3              8.7221782441      -19.4177949180       14.4513391341  MEMB      15              0.0000000000
      2469        43  DOPC      HX              8.0122756169      -19.8159915717       15.2076433065  MEMB      15              0.0000000000
      2470        43  DOPC      HY              8.7820330919      -20.1763761378       13.6320534577  MEMB      15              0.0000000000
      2471        43  DOPC      O31             8.2790601616      -18.1188022654       14.0089885285  MEMB      15              0.0000000000
      2472        43  DOPC      C31             8.3128786773      -17.9516368392       12.6825629167  MEMB      15              0.0000000000
      2473        43  DOPC      O32             8.1207682071      -18.8171677671       11.8521401465  MEMB      15              0.0000000000
      2474        43  DOPC      C32             8.7250484742      -16.5030894187       12.3979102463  MEMB      15              0.0000000000
      2475        43  DOPC      H2X             7.8581857841      -15.9296323563       12.0224519789  MEMB      15              0.0000000000
      2476        43  DOPC      H2Y             9.0173153401      -16.0768924099       13.3816893061  MEMB      15              0.0000000000
      2477        43  DOPC      C23            12.4407520608      -19.9745194827       11.3027506118  MEMB      15              0.0000000000
      2478        43  DOPC      H3R            12.6181553397      -21.0369652555       11.5516368487  MEMB      15              0.0000000000
      2479        43  DOPC      H3S            13.1256529814      -19.6975694449       10.4702706143  MEMB      15              0.0000000000
      2480        43  DOPC      C24            10.9846528995      -19.9526921954       10.8144851014  MEMB      15              0.0000000000
      2481        43  DOPC      H4R            10.8488269186      -19.0905233664       10.1310874561  MEMB      15              0.0000000000
      2482        43  DOPC      H4S            10.3028890405      -19.7920043668       11.6752770567  MEMB      15              0.0000000000
      2483        43  DOPC      C25            10.5317210486      -21.2571290586       10.1136630095  MEMB      15              0.0000000000
      2484        43  DOPC      H5R             9.8628111639      -21.8299457458       10.7916311956  MEMB      15              0.0000000000
      2485        43  DOPC      H5S            11.4025300416      -21.9158467653        9.8858606875  MEMB      15              0.0000000000
      2486        43  DOPC      C26             9.7428890888      -21.0037048453        8.8191361737  MEMB      15              0.0000000000
      2487        43  DOPC      H6R             8.9204809712      -20.2809993589        9.0128780556  MEMB      15              0.0000000000
      2488        43  DOPC      H6S             9.2744413581      -21.9662118188        8.5142190268  MEMB      15              0.0000000000
      2489        43  DOPC      C27            10.7028251371      -20.4879414882        7.7355072690  MEMB      15              0.0000000000
      2490        43  DOPC      H7R            11.5177846689      -21.2371395572        7.6523223797  MEMB      15              0.0000000000
      2491        43  DOPC      H7S            11.1835133714      -19.5609424309        8.1190393432  MEMB      15              0.0000000000
      2492        43  DOPC      C28            10.1631038259      -20.1336384481        6.3274962576  MEMB      15              0.0000000000
      2493        43  DOPC      H8R            10.8397360934      -20.4752979098        5.5588740580  MEMB      15              0.0000000000
      2494        43  DOPC      H8S            10.3850755971      -19.0579129074        6.1741123392  MEMB      15              0.0000000000
      2495        43  DOPC      C29             8.8394031920      -20.5703513174        5.7738078970  MEMB      15              0.0000000000
      2496        43  DOPC      H9R             8.6407384139      -21.6518181471        5.6979165914  MEMB      15              0.0000000000
      2497        43  DOPC      C210            7.9418473836      -19.7052356525        5.3195052297  MEMB      15              0.0000000000
      2498        43  DOPC      H10R            7.0538120489      -20.0829894276        4.7864606476  MEMB      15              0.0000000000
      2499        43  DOPC      C211            8.1619502518      -18.2166087831        5.3373531559  MEMB      15              0.0000000000
      2500        43  DOPC      H11R            7.2931732051      -17.7119356480        4.8600039331  MEMB      15              0.0000000000
      2501        43  DOPC      H11S            9.0715899651      -17.9568601114        4.7534679180  MEMB      15              0.0000000000
      2502        43  DOPC      C212            8.3501913011      -17.6548813549        6.7676432828  MEMB      15              0.0000000000
      2503        43  DOPC      H12R            9.1896225259      -18.1134911601        7.3222252003  MEMB      15              0.0000000000
      2504        43  DOPC      H12S            7.5147809116      -17.9502089164        7.4202212920  MEMB      15              0.0000000000
      2505        43  DOPC      C213            8.6279059169      -16.1501121482        6.8350661050  MEMB      15              0.0000000000
      2506        43  DOPC      H13R            9.7211403090      -16.0437386169        6.9764800962  MEMB      15              0.0000000000
      2507        43  DOPC      H13S            8.1093138528      -15.7425684468        7.7318159643  MEMB      15              0.0000000000
      2508        43  DOPC      C214            8.2660764414      -15.3063228257        5.6156411545  MEMB      15              0.0000000000
      2509        43  DOPC      H14R            7.1664212861      -15.3828333763        5.4919542385  MEMB      15              0.0000000000
      2510        43  DOPC      H14S            8.7393355383      -15.7119655353        4.6976268980  MEMB      15              0.0000000000
      2511        43  DOPC      C215            8.6851306223      -13.8350367846        5.7927811101  MEMB      15              0.0000000000
      2512        43  DOPC      H15R            8.3768834099      -13.5003660530        6.8086062309  MEMB      15              0.0000000000
      2513        43  DOPC      H15S            8.1551574137      -13.1960187395        5.0595619885  MEMB      15              0.0000000000
      2514        43  DOPC      C216           10.1890637835      -13.5653391481        5.6551428454  MEMB      15              0.0000000000
      2515        43  DOPC      H16R           10.7081881321      -14.1401257558        6.4518619593  MEMB      15              0.0000000000
      2516        43  DOPC      H16S           10.3718921264      -12.4807917107        5.8355417637  MEMB      15              0.0000000000
      2517        43  DOPC      C217           10.8421106469      -13.9557245739        4.3219568052  MEMB      15              0.0000000000
      2518        43  DOPC      H17R           10.6270841885      -15.0223449894        4.1067417413  MEMB      15              0.0000000000
      2519        43  DOPC      H17S           11.9416680784      -13.8971930297        4.4620290936  MEMB      15              0.0000000000
      2520        43  DOPC      C218           10.4794839619      -13.0859371553        3.1166849700  MEMB      15              0.0000000000
      2521        43  DOPC      H18R           11.2973202718      -13.0803092069        2.3664292894  MEMB      15              0.0000000000
      2522        43  DOPC      H18S           10.3136546183      -12.0302732490        3.4092377899  MEMB      15              0.0000000000
      2523        43  DOPC      H18T            9.5767284955      -13.4877378893        2.6172889878  MEMB      15              0.0000000000
      2524        43  DOPC      C33             9.9872166129      -16.3266238415       11.5104410679  MEMB      15              0.0000000000
      2525        43  DOPC      H3X            10.7576051872      -17.0862008717       11.7523758027  MEMB      15              0.0000000000
      2526        43  DOPC      H3Y            10.4092811821      -15.3328216817       11.7976646891  MEMB      15              0.0000000000
      2527        43  DOPC      C34             9.7520327417      -16.2799155325        9.9969014763  MEMB      15              0.0000000000
      2528        43  DOPC      H4X             8.8229910566      -15.6965671633        9.8135001417  MEMB      15              0.0000000000
      2529        43  DOPC      H4Y             9.5750368848      -17.2992968829        9.5878742684  MEMB      15              0.0000000000
      2530        43  DOPC      C35            10.9205370418      -15.5828932835        9.2666682514  MEMB      15              0.0000000000
      2531        43  DOPC      H5X            11.4845323948      -14.9560309860        9.9917082227  MEMB      15              0.0000000000
      2532        43  DOPC      H5Y            10.5250848628      -14.8823168143        8.5004052586  MEMB      15              0.0000000000
      2533        43  DOPC      C36            11.9050384543      -16.5495515813        8.5945556411  MEMB      15              0.0000000000
      2534        43  DOPC      H6X            12.0549126806      -17.4399552380        9.2425147086  MEMB      15              0.0000000000
      2535        43  DOPC      H6Y            11.4857311206      -16.9214337666        7.6352563339  MEMB      15              0.0000000000
      2536        43  DOPC      C37            13.2770237928      -15.9043219865        8.3467506998  MEMB      15              0.0000000000
      2537        43  DOPC      H7X            13.1619670976      -14.8070638155        8.2358551994  MEMB      15              0.0000000000
      2538        43  DOPC      H7Y            13.8987189974      -16.0897298120        9.2449379101  MEMB      15              0.0000000000
      2539        43  DOPC      C38            14.0349396674      -16.4477925213        7.1350959240  MEMB      15              0.0000000000
      2540        43  DOPC      H8X            15.0245177070      -15.9588031795        7.0257246390  MEMB      15              0.0000000000
      2541        43  DOPC      H8Y            13.4629394206      -16.1661852461        6.2220504544  MEMB      15              0.0000000000
      2542        43  DOPC      C39            14.1995601802      -17.9308267724        7.3468374893  MEMB      15              0.0000000000
      2543        43  DOPC      H9X            14.7431933904      -18.2391493086        8.2543314982  MEMB      15              0.0000000000
      2544        43  DOPC      C310           13.7547501205      -18.8529705529        6.4899389903  MEMB      15              0.0000000000
      2545        43  DOPC      H10X           13.9363345831      -19.9237728025        6.6750819985  MEMB      15              0.0000000000
      2546        43  DOPC      C311           13.0526961883      -18.4798100734        5.2183875262  MEMB      15              0.0000000000
      2547        43  DOPC      H11X           12.3186039803      -17.6597524890        5.3640479346  MEMB      15              0.0000000000
      2548        43  DOPC      H11Y           12.4569049946      -19.3223301515        4.8312561329  MEMB      15              0.0000000000
      2549        43  DOPC      C312           14.1287651616      -18.0971871055        4.1901553950  MEMB      15              0.0000000000
      2550        43  DOPC      H12X           14.6899720811      -19.0274185161        3.9624896700  MEMB      15              0.0000000000
      2551        43  DOPC      H12Y           14.8400583928      -17.3291281941        4.5712789356  MEMB      15              0.0000000000
      2552        43  DOPC      C313           13.5527399994      -17.6256689173        2.8700269661  MEMB      15              0.0000000000
      2553        43  DOPC      H13X           14.3071786314      -17.6677580080        2.0543149133  MEMB      15              0.0000000000
      2554        43  DOPC      H13Y           12.7473637439      -18.3501784425        2.6451152989  MEMB      15              0.0000000000
      2555        43  DOPC      C314           12.9589982355      -16.2297778585        2.9575405760  MEMB      15              0.0000000000
      2556        43  DOPC      H14X           12.2872500283      -16.2114659589        3.8436411510  MEMB      15              0.0000000000
      2557        43  DOPC      H14Y           13.7516649050      -15.4696618542        3.1305378366  MEMB      15              0.0000000000
      2558        43  DOPC      C315           12.1498528481      -15.8975046513        1.7035065590  MEMB      15              0.0000000000
      2559        43  DOPC      H15X           12.8229701855      -15.7840161819        0.8316359869  MEMB      15              0.0000000000
      2560        43  DOPC      H15Y           11.6665163588      -14.9256472552        1.8617406731  MEMB      15              0.0000000000
      2561        43  DOPC      C316           11.0648301185      -16.9361186106        1.3924634439  MEMB      15              0.0000000000
      2562        43  DOPC      H16X           11.4531106385      -17.6437653881        0.6296069411  MEMB      15              0.0000000000
      2563        43  DOPC      H16Y           10.8784873730      -17.5241630924        2.3222280132  MEMB      15              0.0000000000
      2564        43  DOPC      C317            9.7188464394      -16.3363101215        0.9707004994  MEMB      15              0.0000000000
      2565        43  DOPC      H17X            9.7761617216      -15.2261723146        1.0204860659  MEMB      15              0.0000000000
      2566        43  DOPC      H17Y            9.5035995027      -16.6011391117       -0.0876378142  MEMB      15              0.0000000000
      2567        43  DOPC      C318            8.5684164034      -16.8140797175        1.8602547126  MEMB      15              0.0000000000
      2568        43  DOPC      H18X            8.9317966263      -17.0607444767        2.8800124952  MEMB      15              0.0000000000
      2569        43  DOPC      H18Y            7.7867636762      -16.0381884467        1.9595019236  MEMB      15              0.0000000000
      2570        43  DOPC      H18Z            8.1032670269      -17.7202659580        1.4244364623  MEMB      15              0.0000000000
      2571        44  DOPC      N             -12.6690621343      -13.8307350948       20.8017765169  MEMB      16              0.0000000000
      2572        44  DOPC      C12           -13.2364263595      -13.5141883680       19.4272038179  MEMB      16              0.0000000000
      2573        44  DOPC      H12A          -12.5045898264      -13.8066651784       18.6731183502  MEMB      16              0.0000000000
      2574        44  DOPC      H12B          -13.3691639048      -12.4395980362       19.3448469571  MEMB      16              0.0000000000
      2575        44  DOPC      C13           -12.4157805596      -15.3025711855       20.8324820032  MEMB      16              0.0000000000
      2576        44  DOPC      H13A          -11.9081063468      -15.6348467682       21.7171664777  MEMB      16              0.0000000000
      2577        44  DOPC      H13B          -13.3592955807      -15.8255285377       20.6536928960  MEMB      16              0.0000000000
      2578        44  DOPC      H13C          -11.7998715589      -15.6065212053       19.9767690314  MEMB      16              0.0000000000
      2579        44  DOPC      C14           -13.6808365532      -13.4737758716       21.8305904701  MEMB      16              0.0000000000
      2580        44  DOPC      H14A          -14.6257346675      -13.9491457474       21.5894900687  MEMB      16              0.0000000000
      2581        44  DOPC      H14B          -13.3912353519      -13.7985226204       22.8252221212  MEMB      16              0.0000000000
      2582        44  DOPC      H14C          -13.8801356762      -12.4033813829       21.8378506278  MEMB      16              0.0000000000
      2583        44  DOPC      C15           -11.3930654735      -13.0865022783       21.0734239360  MEMB      16              0.0000000000
      2584        44  DOPC      H15A          -11.5341618619      -12.0179106148       20.9930204120  MEMB      16              0.0000000000
      2585        44  DOPC      H15B          -10.6021145026      -13.3933418574       20.4007194390  MEMB      16              0.0000000000
      2586        44  DOPC      H15C          -11.0265943279      -13.2816910406       22.0790776265  MEMB      16              0.0000000000
      2587        44  DOPC      C11           -14.5863155180      -14.2131719653       19.0707455680  MEMB      16              0.0000000000
      2588        44  DOPC      H11A          -15.3157370695      -14.1088588228       19.8993800896  MEMB      16              0.0000000000
      2589        44  DOPC      H11B          -15.0549278633      -13.6624487734       18.2438477585  MEMB      16              0.0000000000
      2590        44  DOPC      P             -13.5962525980      -16.1275452049       17.5137142953  MEMB      16              0.0000000000
      2591        44  DOPC      O13           -14.2713515951      -17.2554363142       16.8522197780  MEMB      16              0.0000000000
      2592        44  DOPC      O14           -12.2572114439      -16.3544051796       18.0972354035  MEMB      16              0.0000000000
      2593        44  DOPC      O12           -14.4778715541      -15.5959945175       18.7324340594  MEMB      16              0.0000000000
      2594        44  DOPC      O11           -13.5079849110      -14.8523920038       16.5825041327  MEMB      16              0.0000000000
      2595        44  DOPC      C1            -14.6292368981      -14.2845965452       15.9383972767  MEMB      16              0.0000000000
      2596        44  DOPC      HA            -14.6019936801      -13.1842000403       16.0907889859  MEMB      16              0.0000000000
      2597        44  DOPC      HB            -15.5952634637      -14.6615777458       16.3620043733  MEMB      16              0.0000000000
      2598        44  DOPC      C2            -14.6300786249      -14.5597315323       14.4273660337  MEMB      16              0.0000000000
      2599        44  DOPC      HS            -14.7852451686      -15.6556284469       14.3094783891  MEMB      16              0.0000000000
      2600        44  DOPC      O21           -13.4336689417      -14.0692010523       13.7994953055  MEMB      16              0.0000000000
      2601        44  DOPC      C21           -12.7021694943      -14.9531479282       13.1484097348  MEMB      16              0.0000000000
      2602        44  DOPC      O22           -12.8183173042      -16.1591579453       13.1534290029  MEMB      16              0.0000000000
      2603        44  DOPC      C22           -11.7076133486      -14.1807332415       12.2881938049  MEMB      16              0.0000000000
      2604        44  DOPC      H2R           -10.7636760128      -14.1747359183       12.8765369886  MEMB      16              0.0000000000
      2605        44  DOPC      H2S           -12.0339911360      -13.1316836584       12.1588286661  MEMB      16              0.0000000000
      2606        44  DOPC      C3            -15.8264820864      -13.7851568664       13.8438020905  MEMB      16              0.0000000000
      2607        44  DOPC      HX            -15.5396912304      -12.7256444474       13.6635303161  MEMB      16              0.0000000000
      2608        44  DOPC      HY            -16.5898796071      -13.7979998852       14.6596063319  MEMB      16              0.0000000000
      2609        44  DOPC      O31           -16.2793313068      -14.3784123240       12.6193245802  MEMB      16              0.0000000000
      2610        44  DOPC      C31           -17.5829955182      -14.6037857516       12.5839080867  MEMB      16              0.0000000000
      2611        44  DOPC      O32           -18.3977634104      -14.3135903318       13.4372610916  MEMB      16              0.0000000000
      2612        44  DOPC      C32           -17.8840096812      -15.4581161200       11.3747794377  MEMB      16              0.0000000000
      2613        44  DOPC      H2X           -16.9607075718      -15.8691156441       10.9476619321  MEMB      16              0.0000000000
      2614        44  DOPC      H2Y           -18.4653609097      -16.3132832968       11.7767849094  MEMB      16              0.0000000000
      2615        44  DOPC      C23           -11.4431258221      -14.8472582723       10.9152584862  MEMB      16              0.0000000000
      2616        44  DOPC      H3R           -11.4063548907      -15.9520053286       11.0420598071  MEMB      16              0.0000000000
      2617        44  DOPC      H3S           -10.4492787757      -14.4986460113       10.5490810311  MEMB      16              0.0000000000
      2618        44  DOPC      C24           -12.4683204237      -14.5599961724        9.8191574222  MEMB      16              0.0000000000
      2619        44  DOPC      H4R           -12.4095159731      -13.4869556033        9.5376496165  MEMB      16              0.0000000000
      2620        44  DOPC      H4S           -13.4762517890      -14.7585473950       10.2407901480  MEMB      16              0.0000000000
      2621        44  DOPC      C25           -12.2347938690      -15.4556977885        8.5830406988  MEMB      16              0.0000000000
      2622        44  DOPC      H5R           -12.6006365452      -16.4783134381        8.8153984702  MEMB      16              0.0000000000
      2623        44  DOPC      H5S           -11.1399331540      -15.5337316583        8.3942978735  MEMB      16              0.0000000000
      2624        44  DOPC      C26           -12.9034341548      -14.9529995087        7.2955740484  MEMB      16              0.0000000000
      2625        44  DOPC      H6R           -12.4320676815      -13.9847950712        7.0115873284  MEMB      16              0.0000000000
      2626        44  DOPC      H6S           -13.9789941129      -14.7500918070        7.4769247530  MEMB      16              0.0000000000
      2627        44  DOPC      C27           -12.7821373704      -15.9201750022        6.1028720226  MEMB      16              0.0000000000
      2628        44  DOPC      H7R           -11.7072562907      -16.1551624248        5.9347828047  MEMB      16              0.0000000000
      2629        44  DOPC      H7S           -13.1617409853      -15.3972018025        5.2001728179  MEMB      16              0.0000000000
      2630        44  DOPC      C28           -13.5643814216      -17.2397117648        6.2457818661  MEMB      16              0.0000000000
      2631        44  DOPC      H8R           -13.1603568721      -17.7872477813        7.1221863435  MEMB      16              0.0000000000
      2632        44  DOPC      H8S           -13.3583749178      -17.8722344236        5.3533528933  MEMB      16              0.0000000000
      2633        44  DOPC      C29           -15.0451588192      -17.0651057360        6.4411168858  MEMB      16              0.0000000000
      2634        44  DOPC      H9R           -15.3293618963      -16.8874202683        7.4859278885  MEMB      16              0.0000000000
      2635        44  DOPC      C210          -16.0114139857      -17.0438450129        5.5101373624  MEMB      16              0.0000000000
      2636        44  DOPC      H10R          -17.0573458155      -16.9157936271        5.8338803088  MEMB      16              0.0000000000
      2637        44  DOPC      C211          -15.8301124458      -17.1853827711        4.0270324668  MEMB      16              0.0000000000
      2638        44  DOPC      H11R          -16.6652453439      -17.7600032356        3.5733495807  MEMB      16              0.0000000000
      2639        44  DOPC      H11S          -14.8863156983      -17.7118389810        3.7581374935  MEMB      16              0.0000000000
      2640        44  DOPC      C212          -15.8055579239      -15.7847691131        3.4152816942  MEMB      16              0.0000000000
      2641        44  DOPC      H12R          -15.7300781924      -15.9047717237        2.3096809751  MEMB      16              0.0000000000
      2642        44  DOPC      H12S          -14.9006368905      -15.2335704109        3.7537147150  MEMB      16              0.0000000000
      2643        44  DOPC      C213          -17.0373035193      -14.9218179621        3.7336229984  MEMB      16              0.0000000000
      2644        44  DOPC      H13R          -17.1204201790      -14.6821998183        4.8148325242  MEMB      16              0.0000000000
      2645        44  DOPC      H13S          -17.9405751604      -15.4736574204        3.4299118640  MEMB      16              0.0000000000
      2646        44  DOPC      C214          -16.9848267736      -13.6535034767        2.8940564865  MEMB      16              0.0000000000
      2647        44  DOPC      H14R          -16.7318593299      -14.0388313148        1.8823874059  MEMB      16              0.0000000000
      2648        44  DOPC      H14S          -16.1533146359      -13.0044607170        3.2416901325  MEMB      16              0.0000000000
      2649        44  DOPC      C215          -18.2969491783      -12.8719560156        2.7711925735  MEMB      16              0.0000000000
      2650        44  DOPC      H15R          -18.1403854039      -11.8090070343        3.0555857483  MEMB      16              0.0000000000
      2651        44  DOPC      H15S          -19.0301348405      -13.2967410471        3.4945393957  MEMB      16              0.0000000000
      2652        44  DOPC      C216          -18.8893942100      -12.9385629604        1.3480460304  MEMB      16              0.0000000000
      2653        44  DOPC      H16R          -19.9470256840      -12.5913537231        1.4097348657  MEMB      16              0.0000000000
      2654        44  DOPC      H16S          -18.9027037559      -13.9900792590        1.0034943967  MEMB      16              0.0000000000
      2655        44  DOPC      C217          -18.1891579056      -12.0935626192        0.2625725476  MEMB      16              0.0000000000
      2656        44  DOPC      H17R          -18.2473833266      -11.0396170021        0.5993540553  MEMB      16              0.0000000000
      2657        44  DOPC      H17S          -18.8100687201      -12.1687819812       -0.6612577416  MEMB      16              0.0000000000
      2658        44  DOPC      C218          -16.7400716903      -12.4561065972       -0.1152671544  MEMB      16              0.0000000000
      2659        44  DOPC      H18R          -16.2831669074      -11.6993324758       -0.7777905395  MEMB      16              0.0000000000
      2660        44  DOPC      H18S          -16.7091299500      -13.4322623212       -0.6472176888  MEMB      16              0.0000000000
      2661        44  DOPC      H18T          -16.0755760918      -12.4971727304        0.7706740041  MEMB      16              0.0000000000
      2662        44  DOPC      C33           -18.8044597708      -14.8447490955       10.3258992816  MEMB      16              0.0000000000
      2663        44  DOPC      H3X           -19.7327059299      -14.5098903293       10.8389835357  MEMB      16              0.0000000000
      2664        44  DOPC      H3Y           -19.0767085309      -15.6801519258        9.6466994458  MEMB      16              0.0000000000
      2665        44  DOPC      C34           -18.2955622145      -13.6594057534        9.5065568017  MEMB      16              0.0000000000
      2666        44  DOPC      H4X           -18.1034026970      -12.7918887489       10.1730557749  MEMB      16              0.0000000000
      2667        44  DOPC      H4Y           -19.1677257478      -13.3982279876        8.8602627086  MEMB      16              0.0000000000
      2668        44  DOPC      C35           -17.1307228263      -13.8598475878        8.5229212682  MEMB      16              0.0000000000
      2669        44  DOPC      H5X           -17.4010480507      -13.2700503800        7.6250386818  MEMB      16              0.0000000000
      2670        44  DOPC      H5Y           -17.0554723768      -14.9137768632        8.1845212690  MEMB      16              0.0000000000
      2671        44  DOPC      C36           -15.7850552070      -13.3561243947        9.0611278183  MEMB      16              0.0000000000
      2672        44  DOPC      H6X           -15.9561343763      -12.9272507934       10.0775588382  MEMB      16              0.0000000000
      2673        44  DOPC      H6Y           -15.1361030651      -14.2365851951        9.2194128016  MEMB      16              0.0000000000
      2674        44  DOPC      C37           -15.0234291417      -12.2489520981        8.2858397648  MEMB      16              0.0000000000
      2675        44  DOPC      H7X           -15.2517031894      -11.3089422806        8.8383095882  MEMB      16              0.0000000000
      2676        44  DOPC      H7Y           -13.9312189986      -12.4196843126        8.4224763135  MEMB      16              0.0000000000
      2677        44  DOPC      C38           -15.2428341320      -12.0226741241        6.7724023916  MEMB      16              0.0000000000
      2678        44  DOPC      H8X           -16.2850327374      -12.1813631699        6.4428907795  MEMB      16              0.0000000000
      2679        44  DOPC      H8Y           -14.6170515754      -12.7297568057        6.1821083259  MEMB      16              0.0000000000
      2680        44  DOPC      C39           -14.8816920163      -10.5921412317        6.4746183641  MEMB      16              0.0000000000
      2681        44  DOPC      H9X           -15.7273142805       -9.8883265644        6.4504453699  MEMB      16              0.0000000000
      2682        44  DOPC      C310          -13.6643073542      -10.1187169571        6.1872722622  MEMB      16              0.0000000000
      2683        44  DOPC      H10X          -13.6234029359       -9.1134281148        5.7821293550  MEMB      16              0.0000000000
      2684        44  DOPC      C311          -12.3574106137      -10.8614379667        6.0739697786  MEMB      16              0.0000000000
      2685        44  DOPC      H11X          -12.2603381233      -11.6740437773        6.8241311119  MEMB      16              0.0000000000
      2686        44  DOPC      H11Y          -11.4994558086      -10.1645868424        6.2167946910  MEMB      16              0.0000000000
      2687        44  DOPC      C312          -12.4309084004      -11.3653788008        4.6221860070  MEMB      16              0.0000000000
      2688        44  DOPC      H12X          -12.4272266354      -10.4844323167        3.9378111440  MEMB      16              0.0000000000
      2689        44  DOPC      H12Y          -13.3996843952      -11.9073887380        4.4846567318  MEMB      16              0.0000000000
      2690        44  DOPC      C313          -11.3902735280      -12.3557186607        4.0930890423  MEMB      16              0.0000000000
      2691        44  DOPC      H13X          -10.3762586213      -11.9019892220        4.0777320656  MEMB      16              0.0000000000
      2692        44  DOPC      H13Y          -11.3536895918      -13.2451409661        4.7619195732  MEMB      16              0.0000000000
      2693        44  DOPC      C314          -11.8119957514      -12.7870558611        2.6638877277  MEMB      16              0.0000000000
      2694        44  DOPC      H14X          -12.7393297862      -12.2388834426        2.3812913672  MEMB      16              0.0000000000
      2695        44  DOPC      H14Y          -11.0241124332      -12.4870178802        1.9396636709  MEMB      16              0.0000000000
      2696        44  DOPC      C315          -12.0787044870      -14.2958486907        2.5603431126  MEMB      16              0.0000000000
      2697        44  DOPC      H15X          -12.7654618916      -14.6029776573        3.3751972178  MEMB      16              0.0000000000
      2698        44  DOPC      H15Y          -11.1048679653      -14.7984056946        2.7398611390  MEMB      16              0.0000000000
      2699        44  DOPC      C316          -12.6875107029      -14.8368386538        1.2511081539  MEMB      16              0.0000000000
      2700        44  DOPC      H16X          -13.8016162944      -14.8038315588        1.3286494537  MEMB      16              0.0000000000
      2701        44  DOPC      H16Y          -12.4135123149      -14.2061699314        0.3827679717  MEMB      16              0.0000000000
      2702        44  DOPC      C317          -12.2715674485      -16.3110281809        1.0467454688  MEMB      16              0.0000000000
      2703        44  DOPC      H17X          -11.5615246176      -16.5781567580        1.8592415232  MEMB      16              0.0000000000
      2704        44  DOPC      H17Y          -13.1830507836      -16.9310848367        1.1962679153  MEMB      16              0.0000000000
      2705        44  DOPC      C318          -11.6041640667      -16.7137318181       -0.2751642242  MEMB      16              0.0000000000
      2706        44  DOPC      H18X          -11.8309518846      -17.7696313072       -0.5348858773  MEMB      16              0.0000000000
      2707        44  DOPC      H18Y          -11.9679933168      -16.0783034933       -1.0964804969  MEMB      16              0.0000000000
      2708        44  DOPC      H18Z          -10.5028748343      -16.6285149163       -0.2307060089  MEMB      16              0.0000000000
      2709        45  DOPC      N              20.4519191638        4.4482942400       20.8868286205  MEMB      17              0.0000000000
      2710        45  DOPC      C12            19.0990411447        4.8948517534       20.3283621493  MEMB      17              0.0000000000
      2711        45  DOPC      H12A           18.3159631342        4.7311445605       21.0573082715  MEMB      17              0.0000000000
      2712        45  DOPC      H12B           18.8752812146        4.2799126558       19.4528577527  MEMB      17              0.0000000000
      2713        45  DOPC      C13            21.0759764896        5.5501465911       21.6954519227  MEMB      17              0.0000000000
      2714        45  DOPC      H13A           21.2860635165        6.4040175462       21.0446455545  MEMB      17              0.0000000000
      2715        45  DOPC      H13B           20.3904659325        5.9057278982       22.4541585847  MEMB      17              0.0000000000
      2716        45  DOPC      H13C           22.0121798149        5.2411614150       22.1338520907  MEMB      17              0.0000000000
      2717        45  DOPC      C14            21.3622212124        4.1131260995       19.7287099454  MEMB      17              0.0000000000
      2718        45  DOPC      H14A           21.5080413819        4.9944896067       19.0988616581  MEMB      17              0.0000000000
      2719        45  DOPC      H14B           22.3097863085        3.6914445540       20.0206156416  MEMB      17              0.0000000000
      2720        45  DOPC      H14C           20.8690112430        3.4120147930       19.0432557646  MEMB      17              0.0000000000
      2721        45  DOPC      C15            20.3040180047        3.1992417801       21.7025107574  MEMB      17              0.0000000000
      2722        45  DOPC      H15A           20.0034839824        2.3563135877       21.0873957672  MEMB      17              0.0000000000
      2723        45  DOPC      H15B           19.5413006006        3.2670311147       22.4763183294  MEMB      17              0.0000000000
      2724        45  DOPC      H15C           21.2362910081        2.9227712877       22.1788321414  MEMB      17              0.0000000000
      2725        45  DOPC      C11            18.9466331752        6.3579546392       19.8243449563  MEMB      17              0.0000000000
      2726        45  DOPC      H11A           17.9127828776        6.4921116210       19.4245668449  MEMB      17              0.0000000000
      2727        45  DOPC      H11B           19.0249764664        7.0377525327       20.6967041535  MEMB      17              0.0000000000
      2728        45  DOPC      P              19.8147981356        6.0416618185       17.3874144443  MEMB      17              0.0000000000
      2729        45  DOPC      O13            18.8684705047        6.8023378186       16.5503440407  MEMB      17              0.0000000000
      2730        45  DOPC      O14            19.5850365752        4.5845829710       17.5640523260  MEMB      17              0.0000000000
      2731        45  DOPC      O12            19.9193129829        6.7092404776       18.8432630761  MEMB      17              0.0000000000
      2732        45  DOPC      O11            21.2878258631        6.2646155298       16.8795315731  MEMB      17              0.0000000000
      2733        45  DOPC      C1             21.8316089817        7.5825010289       16.7291500079  MEMB      17              0.0000000000
      2734        45  DOPC      HA             22.4687252906        7.8058274419       17.6118472104  MEMB      17              0.0000000000
      2735        45  DOPC      HB             21.0394506145        8.3666736840       16.6571849517  MEMB      17              0.0000000000
      2736        45  DOPC      C2             22.7141191746        7.7433982449       15.4498628671  MEMB      17              0.0000000000
      2737        45  DOPC      HS             23.2282907866        8.7156906619       15.5351688443  MEMB      17              0.0000000000
      2738        45  DOPC      O21            21.8307309773        7.7691609812       14.3211023902  MEMB      17              0.0000000000
      2739        45  DOPC      C21            22.2566731661        7.6716846249       13.0843702690  MEMB      17              0.0000000000
      2740        45  DOPC      O22            23.3975683097        7.7169851402       12.6667418514  MEMB      17              0.0000000000
      2741        45  DOPC      C22            21.0275165306        7.4502321377       12.2131919238  MEMB      17              0.0000000000
      2742        45  DOPC      H2R            21.2949588450        7.7881734480       11.1927013486  MEMB      17              0.0000000000
      2743        45  DOPC      H2S            20.1934701855        8.0810430654       12.5852530673  MEMB      17              0.0000000000
      2744        45  DOPC      C3             23.7834766594        6.6223151414       15.3401727466  MEMB      17              0.0000000000
      2745        45  DOPC      HX             24.4121153905        6.6956768466       16.2592483609  MEMB      17              0.0000000000
      2746        45  DOPC      HY             24.4618462926        6.7943423343       14.4929381273  MEMB      17              0.0000000000
      2747        45  DOPC      O31            23.1714738552        5.3450356097       15.1365495908  MEMB      17              0.0000000000
      2748        45  DOPC      C31            23.3548661619        4.4586094580       16.0784051229  MEMB      17              0.0000000000
      2749        45  DOPC      O32            24.1077877576        4.5613687260       17.0404490075  MEMB      17              0.0000000000
      2750        45  DOPC      C32            22.5960629794        3.1896158336       15.7207712140  MEMB      17              0.0000000000
      2751        45  DOPC      H2X            22.6694725895        2.5159197182       16.6018841179  MEMB      17              0.0000000000
      2752        45  DOPC      H2Y            21.5264014586        3.4195026667       15.5454247480  MEMB      17              0.0000000000
      2753        45  DOPC      C23            20.6111763217        5.9638653264       12.1930472599  MEMB      17              0.0000000000
      2754        45  DOPC      H3R            19.9758080133        5.7356726877       13.0806447058  MEMB      17              0.0000000000
      2755        45  DOPC      H3S            21.5193026497        5.3235392024       12.2633469367  MEMB      17              0.0000000000
      2756        45  DOPC      C24            19.8893427385        5.5868654844       10.8975607146  MEMB      17              0.0000000000
      2757        45  DOPC      H4R            19.5301580660        4.5353281083       10.9705191962  MEMB      17              0.0000000000
      2758        45  DOPC      H4S            20.6303514567        5.6339243750       10.0674580825  MEMB      17              0.0000000000
      2759        45  DOPC      C25            18.7140287706        6.5059523134       10.5604248615  MEMB      17              0.0000000000
      2760        45  DOPC      H5R            19.0632598850        7.5531598277       10.4232645861  MEMB      17              0.0000000000
      2761        45  DOPC      H5S            17.9896868099        6.4909059085       11.4073825642  MEMB      17              0.0000000000
      2762        45  DOPC      C26            17.9960098091        6.0678201392        9.2904882880  MEMB      17              0.0000000000
      2763        45  DOPC      H6R            17.1190238088        6.7295443905        9.1085776995  MEMB      17              0.0000000000
      2764        45  DOPC      H6S            17.6068585267        5.0331675677        9.4385432611  MEMB      17              0.0000000000
      2765        45  DOPC      C27            18.8737196892        6.0540833365        8.0369484277  MEMB      17              0.0000000000
      2766        45  DOPC      H7R            19.6626145022        5.2771480445        8.1627035166  MEMB      17              0.0000000000
      2767        45  DOPC      H7S            19.3838792314        7.0278025322        7.8711949160  MEMB      17              0.0000000000
      2768        45  DOPC      C28            17.9776191507        5.6992331178        6.8536814192  MEMB      17              0.0000000000
      2769        45  DOPC      H8R            17.4053550902        6.5968353266        6.5264828013  MEMB      17              0.0000000000
      2770        45  DOPC      H8S            17.2562673818        4.9550838094        7.2380105845  MEMB      17              0.0000000000
      2771        45  DOPC      C29            18.7223114346        5.0994033376        5.7140562520  MEMB      17              0.0000000000
      2772        45  DOPC      H9R            18.8708392215        5.8056808307        4.8882491580  MEMB      17              0.0000000000
      2773        45  DOPC      C210           19.0045233415        3.7993485947        5.5131304152  MEMB      17              0.0000000000
      2774        45  DOPC      H10R           19.5659033704        3.5579207364        4.6126233476  MEMB      17              0.0000000000
      2775        45  DOPC      C211           18.6550612100        2.5998707368        6.3613055115  MEMB      17              0.0000000000
      2776        45  DOPC      H11R           18.0256267408        1.9141593351        5.7528993119  MEMB      17              0.0000000000
      2777        45  DOPC      H11S           18.0480916148        2.9100008135        7.2412690881  MEMB      17              0.0000000000
      2778        45  DOPC      C212           19.8203473073        1.7600965083        6.9216706543  MEMB      17              0.0000000000
      2779        45  DOPC      H12R           19.4290173403        0.8264816595        7.3796897254  MEMB      17              0.0000000000
      2780        45  DOPC      H12S           20.2286873268        2.3474448274        7.7613167973  MEMB      17              0.0000000000
      2781        45  DOPC      C213           20.9674034085        1.4286182852        5.9459102826  MEMB      17              0.0000000000
      2782        45  DOPC      H13R           21.8043510089        0.9962522569        6.5431791916  MEMB      17              0.0000000000
      2783        45  DOPC      H13S           21.3361590670        2.3748069110        5.5031209048  MEMB      17              0.0000000000
      2784        45  DOPC      C214           20.6364706327        0.4111639931        4.8411056218  MEMB      17              0.0000000000
      2785        45  DOPC      H14R           19.5547250596        0.2301672471        4.9272372484  MEMB      17              0.0000000000
      2786        45  DOPC      H14S           21.1368726134       -0.5564534022        5.0784566313  MEMB      17              0.0000000000
      2787        45  DOPC      C215           20.9935526683        0.7749904974        3.3754771896  MEMB      17              0.0000000000
      2788        45  DOPC      H15R           20.5457234244        0.0137123796        2.6980383036  MEMB      17              0.0000000000
      2789        45  DOPC      H15S           22.0910265403        0.6991743627        3.2413418862  MEMB      17              0.0000000000
      2790        45  DOPC      C216           20.5501118401        2.1607551120        2.8851972414  MEMB      17              0.0000000000
      2791        45  DOPC      H16R           21.0983940235        2.9390260854        3.4595507271  MEMB      17              0.0000000000
      2792        45  DOPC      H16S           19.4575988145        2.3000122871        3.0425571417  MEMB      17              0.0000000000
      2793        45  DOPC      C217           20.8119082241        2.4142185674        1.4009277181  MEMB      17              0.0000000000
      2794        45  DOPC      H17R           20.1632439097        1.7231866398        0.8218153994  MEMB      17              0.0000000000
      2795        45  DOPC      H17S           21.8744139037        2.1690528219        1.1740589846  MEMB      17              0.0000000000
      2796        45  DOPC      C218           20.5159246218        3.8621710876        0.9941921608  MEMB      17              0.0000000000
      2797        45  DOPC      H18R           19.7131644572        4.2961026406        1.6282639434  MEMB      17              0.0000000000
      2798        45  DOPC      H18S           20.1974764614        3.9311571683       -0.0673792123  MEMB      17              0.0000000000
      2799        45  DOPC      H18T           21.4319623377        4.4820354219        1.1119713781  MEMB      17              0.0000000000
      2800        45  DOPC      C33            23.2308146018        2.4874838742       14.5063116333  MEMB      17              0.0000000000
      2801        45  DOPC      H3X            22.9903986384        1.3996977175       14.5752540040  MEMB      17              0.0000000000
      2802        45  DOPC      H3Y            24.3399100881        2.5785597141       14.5336510664  MEMB      17              0.0000000000
      2803        45  DOPC      C34            22.7440070871        2.9936939203       13.1506104727  MEMB      17              0.0000000000
      2804        45  DOPC      H4X            23.3007192715        3.9291608870       12.9045306598  MEMB      17              0.0000000000
      2805        45  DOPC      H4Y            21.6625443599        3.2518242306       13.1922755600  MEMB      17              0.0000000000
      2806        45  DOPC      C35            22.9841225453        1.9413984357       12.0635811930  MEMB      17              0.0000000000
      2807        45  DOPC      H5X            22.0384980966        1.3849704778       11.8714928592  MEMB      17              0.0000000000
      2808        45  DOPC      H5Y            23.7348170444        1.1998520758       12.4180335807  MEMB      17              0.0000000000
      2809        45  DOPC      C36            23.4901910692        2.5615525398       10.7649234055  MEMB      17              0.0000000000
      2810        45  DOPC      H6X            24.4433568726        3.1113958624       10.9257809861  MEMB      17              0.0000000000
      2811        45  DOPC      H6Y            23.6997614769        1.7355943193       10.0474019193  MEMB      17              0.0000000000
      2812        45  DOPC      C37            22.4646947544        3.5268201979       10.1746927156  MEMB      17              0.0000000000
      2813        45  DOPC      H7X            21.4727603115        3.3129492188       10.6361098642  MEMB      17              0.0000000000
      2814        45  DOPC      H7Y            22.7311355901        4.5777660513       10.4345878499  MEMB      17              0.0000000000
      2815        45  DOPC      C38            22.3224257120        3.3517638765        8.6680333453  MEMB      17              0.0000000000
      2816        45  DOPC      H8X            21.3785028480        3.8477003142        8.3541987282  MEMB      17              0.0000000000
      2817        45  DOPC      H8Y            22.2362196736        2.2587520701        8.4585644093  MEMB      17              0.0000000000
      2818        45  DOPC      C39            23.5083213549        3.9498676665        7.9762169457  MEMB      17              0.0000000000
      2819        45  DOPC      H9X            24.4794174715        3.6476063859        8.3966125303  MEMB      17              0.0000000000
      2820        45  DOPC      C310           23.4809657100        4.7886395896        6.9300664747  MEMB      17              0.0000000000
      2821        45  DOPC      H10X           24.4403768359        5.1383363709        6.5234058696  MEMB      17              0.0000000000
      2822        45  DOPC      C311           22.2739690460        5.3211919951        6.2005880095  MEMB      17              0.0000000000
      2823        45  DOPC      H11X           21.8846566251        6.2443656681        6.6823812837  MEMB      17              0.0000000000
      2824        45  DOPC      H11Y           21.4539773634        4.5740620934        6.2049463879  MEMB      17              0.0000000000
      2825        45  DOPC      C312           22.6938698187        5.6192754146        4.7437467882  MEMB      17              0.0000000000
      2826        45  DOPC      H12X           23.0398145922        4.6527038177        4.3027541098  MEMB      17              0.0000000000
      2827        45  DOPC      H12Y           23.5442812765        6.3295793590        4.7443479470  MEMB      17              0.0000000000
      2828        45  DOPC      C313           21.5827548531        6.1451428808        3.8176093154  MEMB      17              0.0000000000
      2829        45  DOPC      H13X           21.5652837216        5.5319920788        2.8955062449  MEMB      17              0.0000000000
      2830        45  DOPC      H13Y           20.6330630726        5.9880010897        4.3318520512  MEMB      17              0.0000000000
      2831        45  DOPC      C314           21.6176544717        7.6211756556        3.4074670985  MEMB      17              0.0000000000
      2832        45  DOPC      H14X           21.5653685010        8.2517905437        4.3252565799  MEMB      17              0.0000000000
      2833        45  DOPC      H14Y           22.5723998058        7.8576004069        2.8989818511  MEMB      17              0.0000000000
      2834        45  DOPC      C315           20.4295582047        7.9929527414        2.4957590211  MEMB      17              0.0000000000
      2835        45  DOPC      H15X           20.3106181721        9.1006697471        2.5210413643  MEMB      17              0.0000000000
      2836        45  DOPC      H15Y           19.4936207313        7.5558250210        2.9138734872  MEMB      17              0.0000000000
      2837        45  DOPC      C316           20.5423240688        7.5682931928        1.0139013026  MEMB      17              0.0000000000
      2838        45  DOPC      H16X           20.1453641441        6.5437841545        0.8697446519  MEMB      17              0.0000000000
      2839        45  DOPC      H16Y           19.8956477476        8.2643738593        0.4425891318  MEMB      17              0.0000000000
      2840        45  DOPC      C317           21.9415371538        7.6750107437        0.3965458301  MEMB      17              0.0000000000
      2841        45  DOPC      H17X           22.3524486182        8.6284687131        0.7729637615  MEMB      17              0.0000000000
      2842        45  DOPC      H17Y           22.5887695599        6.8564882616        0.7812653615  MEMB      17              0.0000000000
      2843        45  DOPC      C318           21.9860349525        7.6956297387       -1.1370843672  MEMB      17              0.0000000000
      2844        45  DOPC      H18X           23.0390648555        7.7497122865       -1.4917222278  MEMB      17              0.0000000000
      2845        45  DOPC      H18Y           21.5184122729        6.7826667045       -1.5595741209  MEMB      17              0.0000000000
      2846        45  DOPC      H18Z           21.4440019882        8.5773277003       -1.5424350253  MEMB      17              0.0000000000
      2847        46  DOPC      N             -21.7313826181        2.7053714731       18.8937112562  MEMB      18              0.0000000000
      2848        46  DOPC      C12           -22.5079642381        1.5446654559       18.2757545952  MEMB      18              0.0000000000
      2849        46  DOPC      H12A          -22.1631312446        1.4027556918       17.2588731217  MEMB      18              0.0000000000
      2850        46  DOPC      H12B          -23.5618522135        1.7849501168       18.2367932802  MEMB      18              0.0000000000
      2851        46  DOPC      C13           -20.2631199621        2.4006244708       18.9761735850  MEMB      18              0.0000000000
      2852        46  DOPC      H13A          -19.7688046933        2.4960864677       18.0173826322  MEMB      18              0.0000000000
      2853        46  DOPC      H13B          -19.7582353881        3.0723496489       19.6601027937  MEMB      18              0.0000000000
      2854        46  DOPC      H13C          -20.1112229478        1.3665165648       19.3057374052  MEMB      18              0.0000000000
      2855        46  DOPC      C14           -22.1463225593        2.9502847675       20.3214290443  MEMB      18              0.0000000000
      2856        46  DOPC      H14A          -21.8679366123        2.0901013644       20.9313218966  MEMB      18              0.0000000000
      2857        46  DOPC      H14B          -21.6277619239        3.8132517489       20.7380132970  MEMB      18              0.0000000000
      2858        46  DOPC      H14C          -23.2183667850        3.0957463720       20.4089089825  MEMB      18              0.0000000000
      2859        46  DOPC      C15           -21.9151863352        3.9654785541       18.0977700552  MEMB      18              0.0000000000
      2860        46  DOPC      H15A          -21.3143330586        4.7867352485       18.4864733447  MEMB      18              0.0000000000
      2861        46  DOPC      H15B          -22.9468620257        4.2855304417       18.1061248564  MEMB      18              0.0000000000
      2862        46  DOPC      H15C          -21.6177982581        3.8474901985       17.0656289138  MEMB      18              0.0000000000
      2863        46  DOPC      C11           -22.3492830568        0.1436689679       18.8995620021  MEMB      18              0.0000000000
      2864        46  DOPC      H11A          -22.5809511070        0.1807950442       19.9910395571  MEMB      18              0.0000000000
      2865        46  DOPC      H11B          -23.0700094595       -0.5618575627       18.4178855248  MEMB      18              0.0000000000
      2866        46  DOPC      P             -20.4552627979       -1.5272672908       19.4668102803  MEMB      18              0.0000000000
      2867        46  DOPC      O13           -21.4599436253       -2.6125893692       19.5038045860  MEMB      18              0.0000000000
      2868        46  DOPC      O14           -19.8997098381       -1.0102909247       20.7508014417  MEMB      18              0.0000000000
      2869        46  DOPC      O12           -21.0260708339       -0.3015366422       18.6320748491  MEMB      18              0.0000000000
      2870        46  DOPC      O11           -19.2455369457       -1.9763974182       18.5470930197  MEMB      18              0.0000000000
      2871        46  DOPC      C1            -18.1818638558       -1.0895174158       18.1888900696  MEMB      18              0.0000000000
      2872        46  DOPC      HA            -17.2357598995       -1.4595362024       18.6351993636  MEMB      18              0.0000000000
      2873        46  DOPC      HB            -18.3357280987       -0.0601607227       18.5886035306  MEMB      18              0.0000000000
      2874        46  DOPC      C2            -17.9858385615       -0.9812581220       16.6454712851  MEMB      18              0.0000000000
      2875        46  DOPC      HS            -17.1192835473       -0.3018454702       16.4624918041  MEMB      18              0.0000000000
      2876        46  DOPC      O21           -19.1686598173       -0.4646829909       16.0224297692  MEMB      18              0.0000000000
      2877        46  DOPC      C21           -19.3320645188        0.8296586365       16.1654682629  MEMB      18              0.0000000000
      2878        46  DOPC      O22           -18.5836303322        1.5652487106       16.7861714836  MEMB      18              0.0000000000
      2879        46  DOPC      C22           -20.4906503733        1.3763395552       15.3400896681  MEMB      18              0.0000000000
      2880        46  DOPC      H2R           -20.5088764298        2.4771861021       15.4952532520  MEMB      18              0.0000000000
      2881        46  DOPC      H2S           -21.4332774840        0.9316184158       15.7132957718  MEMB      18              0.0000000000
      2882        46  DOPC      C3            -17.6093649650       -2.3196261573       15.9413831890  MEMB      18              0.0000000000
      2883        46  DOPC      HX            -16.6419077193       -2.6809921094       16.3409970816  MEMB      18              0.0000000000
      2884        46  DOPC      HY            -17.4690700487       -2.0872388766       14.8570831207  MEMB      18              0.0000000000
      2885        46  DOPC      O31           -18.5889336378       -3.3331665885       16.1847787210  MEMB      18              0.0000000000
      2886        46  DOPC      C31           -19.1567338349       -3.9118580013       15.1422809133  MEMB      18              0.0000000000
      2887        46  DOPC      O32           -18.7968352353       -3.8117349134       13.9827070144  MEMB      18              0.0000000000
      2888        46  DOPC      C32           -20.3170092615       -4.7620914744       15.6250329791  MEMB      18              0.0000000000
      2889        46  DOPC      H2X           -20.6488924735       -5.4163790905       14.7954552447  MEMB      18              0.0000000000
      2890        46  DOPC      H2Y           -19.9067337056       -5.4007231164       16.4319767556  MEMB      18              0.0000000000
      2891        46  DOPC      C23           -20.3155970123        1.0654467681       13.8417607100  MEMB      18              0.0000000000
      2892        46  DOPC      H3R           -19.3444699890        1.4389291533       13.4496392012  MEMB      18              0.0000000000
      2893        46  DOPC      H3S           -21.1256595815        1.5916941121       13.2891692607  MEMB      18              0.0000000000
      2894        46  DOPC      C24           -20.4424561549       -0.4420239082       13.6149040146  MEMB      18              0.0000000000
      2895        46  DOPC      H4R           -21.1858909570       -0.8278279288       14.3357636149  MEMB      18              0.0000000000
      2896        46  DOPC      H4S           -19.4975544461       -0.9729193143       13.8617239586  MEMB      18              0.0000000000
      2897        46  DOPC      C25           -20.7878850975       -0.8432192264       12.1960716885  MEMB      18              0.0000000000
      2898        46  DOPC      H5R           -21.2724603590        0.0024427154       11.6631742297  MEMB      18              0.0000000000
      2899        46  DOPC      H5S           -21.5076954691       -1.6942194324       12.1969333717  MEMB      18              0.0000000000
      2900        46  DOPC      C26           -19.5179016290       -1.2748528921       11.4681094563  MEMB      18              0.0000000000
      2901        46  DOPC      H6R           -19.3176677194       -2.3510859840       11.6805740657  MEMB      18              0.0000000000
      2902        46  DOPC      H6S           -18.6505564119       -0.6955440655       11.8600077260  MEMB      18              0.0000000000
      2903        46  DOPC      C27           -19.6251161589       -1.0000115060        9.9735222511  MEMB      18              0.0000000000
      2904        46  DOPC      H7R           -18.6561920527       -1.2717728050        9.4964201397  MEMB      18              0.0000000000
      2905        46  DOPC      H7S           -19.7620462023        0.0961815273        9.8385883252  MEMB      18              0.0000000000
      2906        46  DOPC      C28           -20.8057370127       -1.7268186865        9.3076774775  MEMB      18              0.0000000000
      2907        46  DOPC      H8R           -20.9470866071       -1.2858824203        8.2972143168  MEMB      18              0.0000000000
      2908        46  DOPC      H8S           -21.7525700561       -1.5676208810        9.8656501579  MEMB      18              0.0000000000
      2909        46  DOPC      C29           -20.4694549228       -3.1858822411        9.2270377051  MEMB      18              0.0000000000
      2910        46  DOPC      H9R           -20.8145827601       -3.8217037266       10.0579082038  MEMB      18              0.0000000000
      2911        46  DOPC      C210          -19.7632757635       -3.7060625945        8.2172488079  MEMB      18              0.0000000000
      2912        46  DOPC      H10R          -19.4126222431       -4.7436453777        8.2912784689  MEMB      18              0.0000000000
      2913        46  DOPC      C211          -19.2312390102       -2.9093968905        7.0556217164  MEMB      18              0.0000000000
      2914        46  DOPC      H11R          -18.8496060496       -1.9157066234        7.3805632159  MEMB      18              0.0000000000
      2915        46  DOPC      H11S          -20.0577748693       -2.7030969893        6.3386802313  MEMB      18              0.0000000000
      2916        46  DOPC      C212          -18.1055740749       -3.6575550869        6.3269393275  MEMB      18              0.0000000000
      2917        46  DOPC      H12R          -18.3551584382       -4.7394102168        6.2463988497  MEMB      18              0.0000000000
      2918        46  DOPC      H12S          -17.1619980986       -3.5586565273        6.9097232571  MEMB      18              0.0000000000
      2919        46  DOPC      C213          -17.8891319981       -3.1443383760        4.9032216021  MEMB      18              0.0000000000
      2920        46  DOPC      H13R          -18.8609307319       -3.1516919926        4.3580891675  MEMB      18              0.0000000000
      2921        46  DOPC      H13S          -17.2028559620       -3.8355414199        4.3625409310  MEMB      18              0.0000000000
      2922        46  DOPC      C214          -17.2958575270       -1.7365057437        4.8707380785  MEMB      18              0.0000000000
      2923        46  DOPC      H14R          -16.2061922369       -1.8132042944        5.0964057326  MEMB      18              0.0000000000
      2924        46  DOPC      H14S          -17.7563391334       -1.0752172010        5.6350632840  MEMB      18              0.0000000000
      2925        46  DOPC      C215          -17.4919908773       -1.0919638158        3.5033184096  MEMB      18              0.0000000000
      2926        46  DOPC      H15R          -18.5631384039       -0.8528198655        3.3230309609  MEMB      18              0.0000000000
      2927        46  DOPC      H15S          -17.2104448359       -1.8669688715        2.7602264207  MEMB      18              0.0000000000
      2928        46  DOPC      C216          -16.6316756716        0.1672063606        3.3594137219  MEMB      18              0.0000000000
      2929        46  DOPC      H16R          -15.6012419342       -0.0631197694        3.7177738948  MEMB      18              0.0000000000
      2930        46  DOPC      H16S          -17.0393967281        0.9640700956        4.0217178194  MEMB      18              0.0000000000
      2931        46  DOPC      C217          -16.5352865316        0.6636052817        1.9140623483  MEMB      18              0.0000000000
      2932        46  DOPC      H17R          -15.8016200554        1.4910294058        1.8778596758  MEMB      18              0.0000000000
      2933        46  DOPC      H17S          -17.5204472326        1.0721833454        1.5933568889  MEMB      18              0.0000000000
      2934        46  DOPC      C218          -16.0584567013       -0.4111402125        0.9368118933  MEMB      18              0.0000000000
      2935        46  DOPC      H18R          -15.9392569984        0.0003045210       -0.0851598926  MEMB      18              0.0000000000
      2936        46  DOPC      H18S          -16.7860485308       -1.2413772879        0.8827397734  MEMB      18              0.0000000000
      2937        46  DOPC      H18T          -15.0866365371       -0.8259097046        1.2847886979  MEMB      18              0.0000000000
      2938        46  DOPC      C33           -21.4712505519       -3.9224698834       16.2029360920  MEMB      18              0.0000000000
      2939        46  DOPC      H3X           -21.0472863293       -3.1233328733       16.8538779686  MEMB      18              0.0000000000
      2940        46  DOPC      H3Y           -22.0956309027       -4.5715758437       16.8590885016  MEMB      18              0.0000000000
      2941        46  DOPC      C34           -22.3535981323       -3.3135685703       15.1094680194  MEMB      18              0.0000000000
      2942        46  DOPC      H4X           -23.0148443994       -4.1057612126       14.6975699237  MEMB      18              0.0000000000
      2943        46  DOPC      H4Y           -21.6982848902       -2.9706678773       14.2788653758  MEMB      18              0.0000000000
      2944        46  DOPC      C35           -23.1991629860       -2.1299461171       15.6107645342  MEMB      18              0.0000000000
      2945        46  DOPC      H5X           -22.5468797561       -1.4604271858       16.2161013800  MEMB      18              0.0000000000
      2946        46  DOPC      H5Y           -23.9984303862       -2.5146625651       16.2852828558  MEMB      18              0.0000000000
      2947        46  DOPC      C36           -23.8262400605       -1.3270611839       14.4563950696  MEMB      18              0.0000000000
      2948        46  DOPC      H6X           -23.0390952695       -0.9480845564       13.7844010124  MEMB      18              0.0000000000
      2949        46  DOPC      H6Y           -24.4314121850       -1.9828240761       13.8047763300  MEMB      18              0.0000000000
      2950        46  DOPC      C37           -24.6810400735       -0.1374417291       14.9123302783  MEMB      18              0.0000000000
      2951        46  DOPC      H7X           -25.5722210387       -0.5382884339       15.4455705081  MEMB      18              0.0000000000
      2952        46  DOPC      H7Y           -24.1022964628        0.4792704708       15.6303800306  MEMB      18              0.0000000000
      2953        46  DOPC      C38           -25.1542948982        0.7297234228       13.7298245874  MEMB      18              0.0000000000
      2954        46  DOPC      H8X           -25.8441859730        1.5151158328       14.1059214058  MEMB      18              0.0000000000
      2955        46  DOPC      H8Y           -25.7600708697        0.0668168513       13.0727523655  MEMB      18              0.0000000000
      2956        46  DOPC      C39           -24.0148940184        1.3770638756       12.9751212994  MEMB      18              0.0000000000
      2957        46  DOPC      H9X           -23.4292723333        2.1078320395       13.5524589163  MEMB      18              0.0000000000
      2958        46  DOPC      C310          -23.6925111666        1.1811154786       11.6793054295  MEMB      18              0.0000000000
      2959        46  DOPC      H10X          -22.8378645888        1.7319515414       11.2595429915  MEMB      18              0.0000000000
      2960        46  DOPC      C311          -24.3979143704        0.2745194196       10.7006937600  MEMB      18              0.0000000000
      2961        46  DOPC      H11X          -25.4397780888        0.0838723564       11.0297451181  MEMB      18              0.0000000000
      2962        46  DOPC      H11Y          -23.8962703253       -0.7181322022       10.6608898061  MEMB      18              0.0000000000
      2963        46  DOPC      C312          -24.4753348841        0.8355466511        9.2638754023  MEMB      18              0.0000000000
      2964        46  DOPC      H12X          -24.6129116433        1.9360086133        9.2717183696  MEMB      18              0.0000000000
      2965        46  DOPC      H12Y          -25.3874768427        0.3987419825        8.8113960708  MEMB      18              0.0000000000
      2966        46  DOPC      C313          -23.2578426554        0.4371513544        8.4185231634  MEMB      18              0.0000000000
      2967        46  DOPC      H13X          -22.3491633559        0.5510523438        9.0502973228  MEMB      18              0.0000000000
      2968        46  DOPC      H13Y          -23.3557094736       -0.6438697417        8.1612180703  MEMB      18              0.0000000000
      2969        46  DOPC      C314          -23.0292858113        1.2216387169        7.1141346260  MEMB      18              0.0000000000
      2970        46  DOPC      H14X          -23.9161962961        1.1032984700        6.4546280506  MEMB      18              0.0000000000
      2971        46  DOPC      H14Y          -22.9161890419        2.3050946494        7.3403973694  MEMB      18              0.0000000000
      2972        46  DOPC      C315          -21.7621659540        0.6890284506        6.4155274066  MEMB      18              0.0000000000
      2973        46  DOPC      H15X          -21.7821430220       -0.4239833733        6.4764756713  MEMB      18              0.0000000000
      2974        46  DOPC      H15Y          -20.8694647570        1.0317075466        6.9847283132  MEMB      18              0.0000000000
      2975        46  DOPC      C316          -21.5819347026        1.0366598286        4.9303533818  MEMB      18              0.0000000000
      2976        46  DOPC      H16X          -21.7246730701        2.1230148566        4.7523035381  MEMB      18              0.0000000000
      2977        46  DOPC      H16Y          -20.5340443305        0.7796145020        4.6412069712  MEMB      18              0.0000000000
      2978        46  DOPC      C317          -22.5122641553        0.2154201317        4.0322937763  MEMB      18              0.0000000000
      2979        46  DOPC      H17X          -22.2745058251       -0.8631755003        4.1888962266  MEMB      18              0.0000000000
      2980        46  DOPC      H17Y          -23.5629892066        0.3786078597        4.3633911669  MEMB      18              0.0000000000
      2981        46  DOPC      C318          -22.3998318187        0.5476687883        2.5438787492  MEMB      18              0.0000000000
      2982        46  DOPC      H18X          -22.6693362233        1.6117634672        2.3717662240  MEMB      18              0.0000000000
      2983        46  DOPC      H18Y          -21.3620643931        0.3823648310        2.1809543483  MEMB      18              0.0000000000
      2984        46  DOPC      H18Z          -23.0894679781       -0.0894632829        1.9480121351  MEMB      18              0.0000000000
      2985        47  DOPC      N              16.5914599205      -12.0760795514       21.3666836040  MEMB      19              0.0000000000
      2986        47  DOPC      C12            15.6383411761      -11.8643242727       20.1925513013  MEMB      19              0.0000000000
      2987        47  DOPC      H12A           14.7161575477      -11.4142796655       20.5397265876  MEMB      19              0.0000000000
      2988        47  DOPC      H12B           15.3803566579      -12.8483630428       19.8148652389  MEMB      19              0.0000000000
      2989        47  DOPC      C13            17.4552154292      -10.8754441162       21.5325109713  MEMB      19              0.0000000000
      2990        47  DOPC      H13A           16.8456514922       -9.9998151861       21.7029168206  MEMB      19              0.0000000000
      2991        47  DOPC      H13B           18.1183469382      -10.9930495637       22.3802696648  MEMB      19              0.0000000000
      2992        47  DOPC      H13C           18.0088196115      -10.7429847773       20.6105185111  MEMB      19              0.0000000000
      2993        47  DOPC      C14            17.4366162688      -13.2629885079       21.0231498374  MEMB      19              0.0000000000
      2994        47  DOPC      H14A           18.0101100704      -13.0500744157       20.1174764692  MEMB      19              0.0000000000
      2995        47  DOPC      H14B           18.1404764946      -13.5121878641       21.8056789801  MEMB      19              0.0000000000
      2996        47  DOPC      H14C           16.8392549425      -14.1401831197       20.8003102572  MEMB      19              0.0000000000
      2997        47  DOPC      C15            15.8647965684      -12.3125321430       22.6509133234  MEMB      19              0.0000000000
      2998        47  DOPC      H15A           15.1777530750      -13.1399552173       22.5486209484  MEMB      19              0.0000000000
      2999        47  DOPC      H15B           15.3008829019      -11.4316942085       22.9266670325  MEMB      19              0.0000000000
      3000        47  DOPC      H15C           16.5671032008      -12.5266904658       23.4475085941  MEMB      19              0.0000000000
      3001        47  DOPC      C11            16.1474280420      -11.0682089382       18.9562905038  MEMB      19              0.0000000000
      3002        47  DOPC      H11A           15.2717030220      -10.9626652451       18.2653728599  MEMB      19              0.0000000000
      3003        47  DOPC      H11B           16.4364444234      -10.0381888646       19.2452210136  MEMB      19              0.0000000000
      3004        47  DOPC      P              17.2709260176      -11.9801298068       16.7688678042  MEMB      19              0.0000000000
      3005        47  DOPC      O13            15.8960717273      -12.3066661410       16.3339670124  MEMB      19              0.0000000000
      3006        47  DOPC      O14            18.3274285529      -12.9831503317       16.5013738668  MEMB      19              0.0000000000
      3007        47  DOPC      O12            17.2702758238      -11.7098350005       18.3434412894  MEMB      19              0.0000000000
      3008        47  DOPC      O11            17.6912126002      -10.5697517053       16.1658986891  MEMB      19              0.0000000000
      3009        47  DOPC      C1             18.9179163104      -10.3615504342       15.4585419611  MEMB      19              0.0000000000
      3010        47  DOPC      HA             19.6347284403      -11.2026140267       15.6087039284  MEMB      19              0.0000000000
      3011        47  DOPC      HB             19.4051507542       -9.4438365254       15.8563177667  MEMB      19              0.0000000000
      3012        47  DOPC      C2             18.7532567008      -10.1649199077       13.9110462831  MEMB      19              0.0000000000
      3013        47  DOPC      HS             18.4404406820       -9.1195675242       13.7218551636  MEMB      19              0.0000000000
      3014        47  DOPC      O21            17.7913629466      -11.0748488169       13.3733359333  MEMB      19              0.0000000000
      3015        47  DOPC      C21            16.5301657028      -10.6594094277       13.4137551186  MEMB      19              0.0000000000
      3016        47  DOPC      O22            16.1440412899       -9.5257902228       13.6408545851  MEMB      19              0.0000000000
      3017        47  DOPC      C22            15.6588979969      -11.8086038202       12.9300525622  MEMB      19              0.0000000000
      3018        47  DOPC      H2R            15.9793754674      -12.7233420077       13.4736381622  MEMB      19              0.0000000000
      3019        47  DOPC      H2S            15.8908562016      -11.9095076721       11.8525900403  MEMB      19              0.0000000000
      3020        47  DOPC      C3             20.1291568556      -10.3729969672       13.2015230661  MEMB      19              0.0000000000
      3021        47  DOPC      HX             20.4351485350      -11.4279537584       13.3981626694  MEMB      19              0.0000000000
      3022        47  DOPC      HY             20.8577360330       -9.7164222424       13.7263326589  MEMB      19              0.0000000000
      3023        47  DOPC      O31            20.1307752834      -10.0103230910       11.7953952335  MEMB      19              0.0000000000
      3024        47  DOPC      C31            20.2875926001      -11.0064358077       10.9233650055  MEMB      19              0.0000000000
      3025        47  DOPC      O32            20.4338885875      -12.1813925739       11.1940529552  MEMB      19              0.0000000000
      3026        47  DOPC      C32            20.3985932389      -10.4613853944        9.5041232255  MEMB      19              0.0000000000
      3027        47  DOPC      H2X            21.4468552496      -10.1301761147        9.3588857950  MEMB      19              0.0000000000
      3028        47  DOPC      H2Y            20.2129895689      -11.3058977784        8.8172134807  MEMB      19              0.0000000000
      3029        47  DOPC      C23            14.1365836935      -11.6128687008       13.0719859710  MEMB      19              0.0000000000
      3030        47  DOPC      H3R            13.8456347469      -10.5853857497       12.7528285357  MEMB      19              0.0000000000
      3031        47  DOPC      H3S            13.8577488573      -11.7304149649       14.1452196956  MEMB      19              0.0000000000
      3032        47  DOPC      C24            13.3650512630      -12.6291283074       12.2133464880  MEMB      19              0.0000000000
      3033        47  DOPC      H4R            13.5106275550      -12.3781388028       11.1405273931  MEMB      19              0.0000000000
      3034        47  DOPC      H4S            12.2813502137      -12.5032129815       12.4385813050  MEMB      19              0.0000000000
      3035        47  DOPC      C25            13.7633800920      -14.1006929065       12.4679918210  MEMB      19              0.0000000000
      3036        47  DOPC      H5R            12.8020986855      -14.6624079824       12.5571389087  MEMB      19              0.0000000000
      3037        47  DOPC      H5S            14.2948545293      -14.2170764346       13.4346289065  MEMB      19              0.0000000000
      3038        47  DOPC      C26            14.5417748296      -14.7762473871       11.3200040500  MEMB      19              0.0000000000
      3039        47  DOPC      H6R            14.1972778973      -14.3080878947       10.3753308596  MEMB      19              0.0000000000
      3040        47  DOPC      H6S            14.2357648549      -15.8477452958       11.3010502232  MEMB      19              0.0000000000
      3041        47  DOPC      C27            16.0851526471      -14.7708263103       11.3996367395  MEMB      19              0.0000000000
      3042        47  DOPC      H7R            16.3919352005      -15.2498166119       12.3564000459  MEMB      19              0.0000000000
      3043        47  DOPC      H7S            16.4817325104      -13.7379508507       11.4145371492  MEMB      19              0.0000000000
      3044        47  DOPC      C28            16.7893192724      -15.4918652519       10.2302941699  MEMB      19              0.0000000000
      3045        47  DOPC      H8R            16.4491453133      -16.5502239086       10.2017289550  MEMB      19              0.0000000000
      3046        47  DOPC      H8S            17.8841125496      -15.5007172883       10.4332589000  MEMB      19              0.0000000000
      3047        47  DOPC      C29            16.4778385053      -14.7982416269        8.9288977813  MEMB      19              0.0000000000
      3048        47  DOPC      H9R            15.4331840214      -14.4842178820        8.8100474833  MEMB      19              0.0000000000
      3049        47  DOPC      C210           17.3086400546      -14.4950059749        7.9259906211  MEMB      19              0.0000000000
      3050        47  DOPC      H10R           16.8860393996      -13.9689734213        7.0563176644  MEMB      19              0.0000000000
      3051        47  DOPC      C211           18.7811274733      -14.7852812484        7.8668967220  MEMB      19              0.0000000000
      3052        47  DOPC      H11R           18.9485950284      -15.7910190157        7.4270140290  MEMB      19              0.0000000000
      3053        47  DOPC      H11S           19.2168470497      -14.8114375399        8.8875405812  MEMB      19              0.0000000000
      3054        47  DOPC      C212           19.5601490003      -13.7328673862        7.0518449110  MEMB      19              0.0000000000
      3055        47  DOPC      H12R           20.6267945537      -14.0462527005        7.0047141728  MEMB      19              0.0000000000
      3056        47  DOPC      H12S           19.5175588177      -12.7671945938        7.5961247505  MEMB      19              0.0000000000
      3057        47  DOPC      C213           19.0505614600      -13.5010741350        5.6187922752  MEMB      19              0.0000000000
      3058        47  DOPC      H13R           19.7209250257      -12.7753610669        5.1036699124  MEMB      19              0.0000000000
      3059        47  DOPC      H13S           18.0496839760      -13.0163175707        5.6633703391  MEMB      19              0.0000000000
      3060        47  DOPC      C214           18.9677432352      -14.7848057034        4.7804263011  MEMB      19              0.0000000000
      3061        47  DOPC      H14R           18.6616622255      -15.6612236500        5.3894329124  MEMB      19              0.0000000000
      3062        47  DOPC      H14S           19.9873302319      -14.9911498607        4.3911834529  MEMB      19              0.0000000000
      3063        47  DOPC      C215           17.9420309344      -14.6545997975        3.6512555554  MEMB      19              0.0000000000
      3064        47  DOPC      H15R           18.1411042454      -13.6992887509        3.1140482487  MEMB      19              0.0000000000
      3065        47  DOPC      H15S           16.9263556897      -14.6072059599        4.1088863962  MEMB      19              0.0000000000
      3066        47  DOPC      C216           17.9603067861      -15.7831919248        2.6166223236  MEMB      19              0.0000000000
      3067        47  DOPC      H16R           17.2995798051      -15.5003796033        1.7639727555  MEMB      19              0.0000000000
      3068        47  DOPC      H16S           17.5485338742      -16.7156133189        3.0610742678  MEMB      19              0.0000000000
      3069        47  DOPC      C217           19.3692303772      -16.0474030867        2.0871047560  MEMB      19              0.0000000000
      3070        47  DOPC      H17R           19.9630351158      -16.5419294002        2.8894480007  MEMB      19              0.0000000000
      3071        47  DOPC      H17S           19.8616179242      -15.0763441128        1.8551250709  MEMB      19              0.0000000000
      3072        47  DOPC      C218           19.3782513609      -16.9258101478        0.8477985738  MEMB      19              0.0000000000
      3073        47  DOPC      H18R           18.8948630035      -16.4136529945       -0.0103818996  MEMB      19              0.0000000000
      3074        47  DOPC      H18S           18.8075592776      -17.8534435235        1.0624652533  MEMB      19              0.0000000000
      3075        47  DOPC      H18T           20.4151720055      -17.2005504176        0.5579843235  MEMB      19              0.0000000000
      3076        47  DOPC      C33            19.4401991822       -9.2943534811        9.1983324418  MEMB      19              0.0000000000
      3077        47  DOPC      H3X            19.5450703879       -9.0194091178        8.1243267089  MEMB      19              0.0000000000
      3078        47  DOPC      H3Y            19.7632602700       -8.4184198804        9.7954210381  MEMB      19              0.0000000000
      3079        47  DOPC      C34            17.9646587796       -9.6067842132        9.4844167379  MEMB      19              0.0000000000
      3080        47  DOPC      H4X            17.3498353583       -8.7419588924        9.1511670863  MEMB      19              0.0000000000
      3081        47  DOPC      H4Y            17.8095208804       -9.7110953252       10.5834350247  MEMB      19              0.0000000000
      3082        47  DOPC      C35            17.4659247286      -10.8899453690        8.8055724919  MEMB      19              0.0000000000
      3083        47  DOPC      H5X            17.9797596428      -11.7649503294        9.2665580628  MEMB      19              0.0000000000
      3084        47  DOPC      H5Y            17.7253253467      -10.8810891082        7.7234180045  MEMB      19              0.0000000000
      3085        47  DOPC      C36            15.9551705841      -11.0895909734        8.9740414806  MEMB      19              0.0000000000
      3086        47  DOPC      H6X            15.7156578720      -12.1567927988        8.7761318839  MEMB      19              0.0000000000
      3087        47  DOPC      H6Y            15.6664024133      -10.8691521406       10.0222376024  MEMB      19              0.0000000000
      3088        47  DOPC      C37            15.1240781260      -10.2226694975        8.0216730925  MEMB      19              0.0000000000
      3089        47  DOPC      H7X            15.4356348463       -9.1597978535        8.1124542767  MEMB      19              0.0000000000
      3090        47  DOPC      H7Y            15.3614904185      -10.5430718896        6.9815690809  MEMB      19              0.0000000000
      3091        47  DOPC      C38            13.6059507039      -10.2991012865        8.2924139462  MEMB      19              0.0000000000
      3092        47  DOPC      H8X            13.0956996874       -9.5995813493        7.5922332487  MEMB      19              0.0000000000
      3093        47  DOPC      H8Y            13.4035991759       -9.9273592225        9.3215150737  MEMB      19              0.0000000000
      3094        47  DOPC      C39            13.0377096028      -11.6833627383        8.1347657512  MEMB      19              0.0000000000
      3095        47  DOPC      H9X            12.7067105172      -12.1872547491        9.0547393514  MEMB      19              0.0000000000
      3096        47  DOPC      C310           12.9020972727      -12.3257962800        6.9704355417  MEMB      19              0.0000000000
      3097        47  DOPC      H10X           12.4851972192      -13.3410867522        6.9699396868  MEMB      19              0.0000000000
      3098        47  DOPC      C311           13.2787512979      -11.8113387202        5.6134171801  MEMB      19              0.0000000000
      3099        47  DOPC      H11X           13.7271348621      -10.7940442357        5.6393107458  MEMB      19              0.0000000000
      3100        47  DOPC      H11Y           12.3694168490      -11.7118590753        4.9796166513  MEMB      19              0.0000000000
      3101        47  DOPC      C312           14.2622195877      -12.7636286890        4.9206433212  MEMB      19              0.0000000000
      3102        47  DOPC      H12X           13.9918163290      -13.8346170150        5.0604431484  MEMB      19              0.0000000000
      3103        47  DOPC      H12Y           15.2773843629      -12.6208417410        5.3522860130  MEMB      19              0.0000000000
      3104        47  DOPC      C313           14.2589485524      -12.4524877109        3.4322914091  MEMB      19              0.0000000000
      3105        47  DOPC      H13X           13.4174153171      -12.9628681921        2.9155017760  MEMB      19              0.0000000000
      3106        47  DOPC      H13Y           14.0932318816      -11.3533154584        3.3252528861  MEMB      19              0.0000000000
      3107        47  DOPC      C314           15.5545785444      -12.7659197691        2.7096438031  MEMB      19              0.0000000000
      3108        47  DOPC      H14X           16.4205197435      -12.4674642316        3.3406849721  MEMB      19              0.0000000000
      3109        47  DOPC      H14Y           15.6193782728      -13.8526038212        2.4755794709  MEMB      19              0.0000000000
      3110        47  DOPC      C315           15.5562197780      -11.9432770279        1.4373602313  MEMB      19              0.0000000000
      3111        47  DOPC      H15X           15.5714362554      -10.8615867383        1.7114058601  MEMB      19              0.0000000000
      3112        47  DOPC      H15Y           14.6082510511      -12.1789659344        0.9048714424  MEMB      19              0.0000000000
      3113        47  DOPC      C316           16.7090946715      -12.2229206503        0.5024694825  MEMB      19              0.0000000000
      3114        47  DOPC      H16X           17.6479638158      -11.8468049290        0.9553568851  MEMB      19              0.0000000000
      3115        47  DOPC      H16Y           16.8118199650      -13.3252353264        0.3831744292  MEMB      19              0.0000000000
      3116        47  DOPC      C317           16.4664833361      -11.6061374065       -0.8774931241  MEMB      19              0.0000000000
      3117        47  DOPC      H17X           17.4221366916      -11.2635419778       -1.3001712629  MEMB      19              0.0000000000
      3118        47  DOPC      H17Y           16.1682402460      -12.4445031651       -1.5292462163  MEMB      19              0.0000000000
      3119        47  DOPC      C318           15.4362829657      -10.4635089700       -0.9528092437  MEMB      19              0.0000000000
      3120        47  DOPC      H18X           14.4231412769      -10.8044939667       -0.6664046032  MEMB      19              0.0000000000
      3121        47  DOPC      H18Y           15.7006553106       -9.6297080169       -0.2748051252  MEMB      19              0.0000000000
      3122        47  DOPC      H18Z           15.3509404560      -10.0900223592       -1.9926266582  MEMB      19              0.0000000000
      3123        48  DOPC      N              -6.8231919082      -22.7593119690       17.4739250574  MEMB      20              0.0000000000
      3124        48  DOPC      C12            -7.9263103413      -22.7354067719       18.5366644955  MEMB      20              0.0000000000
      3125        48  DOPC      H12A           -7.4656358219      -22.9832161813       19.4905901169  MEMB      20              0.0000000000
      3126        48  DOPC      H12B           -8.6472524447      -23.5139907945       18.3310246406  MEMB      20              0.0000000000
      3127        48  DOPC      C13            -7.2664364740      -22.0931585547       16.2140153351  MEMB      20              0.0000000000
      3128        48  DOPC      H13A           -8.0327148710      -22.6718176016       15.7182904053  MEMB      20              0.0000000000
      3129        48  DOPC      H13B           -7.6631109405      -21.1112956996       16.4757769924  MEMB      20              0.0000000000
      3130        48  DOPC      H13C           -6.4400504086      -21.9378555936       15.5312437517  MEMB      20              0.0000000000
      3131        48  DOPC      C14            -6.3723688320      -24.1663056323       17.2311453944  MEMB      20              0.0000000000
      3132        48  DOPC      H14A           -7.1594671951      -24.7804016334       16.8071406555  MEMB      20              0.0000000000
      3133        48  DOPC      H14B           -5.4961783296      -24.2075226621       16.5916829046  MEMB      20              0.0000000000
      3134        48  DOPC      H14C           -6.1036866163      -24.6187568521       18.1825135899  MEMB      20              0.0000000000
      3135        48  DOPC      C15            -5.6749517717      -21.9808922032       18.0156484646  MEMB      20              0.0000000000
      3136        48  DOPC      H15A           -5.4083400055      -22.2918765417       19.0252745159  MEMB      20              0.0000000000
      3137        48  DOPC      H15B           -5.9766007934      -20.9386988975       18.1697302818  MEMB      20              0.0000000000
      3138        48  DOPC      H15C           -4.7988708133      -21.9943066505       17.3957775687  MEMB      20              0.0000000000
      3139        48  DOPC      C11            -8.7020297797      -21.4157359498       18.8070901274  MEMB      20              0.0000000000
      3140        48  DOPC      H11A           -9.3113700452      -21.1548581888       17.9148387464  MEMB      20              0.0000000000
      3141        48  DOPC      H11B           -9.4371963543      -21.6147770978       19.6258448150  MEMB      20              0.0000000000
      3142        48  DOPC      P              -7.2491839272      -20.1505899269       20.6041553657  MEMB      20              0.0000000000
      3143        48  DOPC      O13            -5.9467675544      -20.8618244739       20.6145712309  MEMB      20              0.0000000000
      3144        48  DOPC      O14            -8.2733511431      -20.6248482610       21.5475600720  MEMB      20              0.0000000000
      3145        48  DOPC      O12            -7.8398568089      -20.3232690009       19.1366461160  MEMB      20              0.0000000000
      3146        48  DOPC      O11            -7.1458994404      -18.5814055845       20.8010509715  MEMB      20              0.0000000000
      3147        48  DOPC      C1             -5.9723514014      -17.9226295363       20.3376989895  MEMB      20              0.0000000000
      3148        48  DOPC      HA             -5.1197233749      -18.6081323780       20.1128354437  MEMB      20              0.0000000000
      3149        48  DOPC      HB             -5.5997151583      -17.2605373862       21.1465219588  MEMB      20              0.0000000000
      3150        48  DOPC      C2             -6.2944698724      -17.0851061858       19.0805279591  MEMB      20              0.0000000000
      3151        48  DOPC      HS             -7.0541976312      -16.3343676122       19.4069377822  MEMB      20              0.0000000000
      3152        48  DOPC      O21            -6.8100620200      -17.9632417305       18.0392914399  MEMB      20              0.0000000000
      3153        48  DOPC      C21            -7.7347251677      -17.3784264991       17.2819639860  MEMB      20              0.0000000000
      3154        48  DOPC      O22            -7.9729563236      -16.1868720838       17.2853603397  MEMB      20              0.0000000000
      3155        48  DOPC      C22            -8.6114985826      -18.3879059917       16.5235864884  MEMB      20              0.0000000000
      3156        48  DOPC      H2R            -9.6429591776      -17.9654690023       16.5692906703  MEMB      20              0.0000000000
      3157        48  DOPC      H2S            -8.6125228924      -19.3229891107       17.1060292336  MEMB      20              0.0000000000
      3158        48  DOPC      C3             -5.0016788155      -16.3436255109       18.6412664774  MEMB      20              0.0000000000
      3159        48  DOPC      HX             -4.6885869693      -15.6591086828       19.4453803767  MEMB      20              0.0000000000
      3160        48  DOPC      HY             -5.1969685050      -15.7107454218       17.7475978421  MEMB      20              0.0000000000
      3161        48  DOPC      O31            -3.9303780339      -17.2934246130       18.4891905556  MEMB      20              0.0000000000
      3162        48  DOPC      C31            -4.0653650621      -17.9380616855       17.3641310923  MEMB      20              0.0000000000
      3163        48  DOPC      O32            -4.5413807377      -17.4697706677       16.3346443829  MEMB      20              0.0000000000
      3164        48  DOPC      C32            -3.6497284046      -19.3995789998       17.4893619776  MEMB      20              0.0000000000
      3165        48  DOPC      H2X            -2.5681173547      -19.4621178027       17.7046457874  MEMB      20              0.0000000000
      3166        48  DOPC      H2Y            -4.2082695005      -19.8549082641       18.3257862311  MEMB      20              0.0000000000
      3167        48  DOPC      C23            -8.2666076483      -18.6889085104       15.0367804811  MEMB      20              0.0000000000
      3168        48  DOPC      H3R            -9.0417352693      -19.4185951257       14.6979061794  MEMB      20              0.0000000000
      3169        48  DOPC      H3S            -7.2690034658      -19.1645694624       14.9427313501  MEMB      20              0.0000000000
      3170        48  DOPC      C24            -8.3428003075      -17.4840006108       14.0810196046  MEMB      20              0.0000000000
      3171        48  DOPC      H4R            -7.3830872766      -16.9303544279       14.1210230510  MEMB      20              0.0000000000
      3172        48  DOPC      H4S            -9.1489472326      -16.7922957204       14.4253620924  MEMB      20              0.0000000000
      3173        48  DOPC      C25            -8.6327477636      -17.8666520158       12.6171834642  MEMB      20              0.0000000000
      3174        48  DOPC      H5R            -9.5543932642      -18.4987045481       12.6321652531  MEMB      20              0.0000000000
      3175        48  DOPC      H5S            -7.8102037947      -18.4709228641       12.1891983960  MEMB      20              0.0000000000
      3176        48  DOPC      C26            -8.9773476959      -16.6711590368       11.7105619453  MEMB      20              0.0000000000
      3177        48  DOPC      H6R            -9.5320269297      -15.9358090985       12.3341142936  MEMB      20              0.0000000000
      3178        48  DOPC      H6S            -9.6753087514      -17.0523614550       10.9316616387  MEMB      20              0.0000000000
      3179        48  DOPC      C27            -7.8548981481      -15.9210069430       10.9612195237  MEMB      20              0.0000000000
      3180        48  DOPC      H7R            -7.2592623961      -15.3380763822       11.6917027731  MEMB      20              0.0000000000
      3181        48  DOPC      H7S            -8.3387445033      -15.1759867432       10.2848450980  MEMB      20              0.0000000000
      3182        48  DOPC      C28            -6.9372756878      -16.7970366108       10.0902727695  MEMB      20              0.0000000000
      3183        48  DOPC      H8R            -6.3644460798      -17.4790216686       10.7616250631  MEMB      20              0.0000000000
      3184        48  DOPC      H8S            -6.1841915495      -16.1404877087        9.5970208632  MEMB      20              0.0000000000
      3185        48  DOPC      C29            -7.7329024510      -17.5871896357        9.0766465232  MEMB      20              0.0000000000
      3186        48  DOPC      H9R            -8.2582672057      -18.4523422341        9.5094414160  MEMB      20              0.0000000000
      3187        48  DOPC      C210           -7.8810506012      -17.3508079293        7.7587691114  MEMB      20              0.0000000000
      3188        48  DOPC      H10R           -8.5272685894      -18.0305406346        7.1819048455  MEMB      20              0.0000000000
      3189        48  DOPC      C211           -7.2939068997      -16.2257848918        6.9398696983  MEMB      20              0.0000000000
      3190        48  DOPC      H11R           -6.9051257807      -15.4148085713        7.5995389064  MEMB      20              0.0000000000
      3191        48  DOPC      H11S           -8.1066735713      -15.7594299299        6.3415826788  MEMB      20              0.0000000000
      3192        48  DOPC      C212           -6.1476375827      -16.6075440488        5.9708545769  MEMB      20              0.0000000000
      3193        48  DOPC      H12R           -5.2158673402      -16.7021424859        6.5589298488  MEMB      20              0.0000000000
      3194        48  DOPC      H12S           -5.9185029715      -15.7479878903        5.3147173053  MEMB      20              0.0000000000
      3195        48  DOPC      C213           -6.3350268865      -17.8783588032        5.1060751023  MEMB      20              0.0000000000
      3196        48  DOPC      H13R           -7.1832487776      -18.4979953670        5.4529482926  MEMB      20              0.0000000000
      3197        48  DOPC      H13S           -5.4412698877      -18.5130569976        5.2695145402  MEMB      20              0.0000000000
      3198        48  DOPC      C214           -6.4618127480      -17.5996002339        3.5915431847  MEMB      20              0.0000000000
      3199        48  DOPC      H14R           -5.8293629461      -16.7315148710        3.3127985783  MEMB      20              0.0000000000
      3200        48  DOPC      H14S           -7.5167994740      -17.3034446075        3.3998874258  MEMB      20              0.0000000000
      3201        48  DOPC      C215           -6.0962197239      -18.7894346196        2.6685436082  MEMB      20              0.0000000000
      3202        48  DOPC      H15R           -6.8332610013      -18.8357573167        1.8504806530  MEMB      20              0.0000000000
      3203        48  DOPC      H15S           -6.2564043859      -19.7252108700        3.2319003849  MEMB      20              0.0000000000
      3204        48  DOPC      C216           -4.6833431514      -18.7033708677        2.0340657342  MEMB      20              0.0000000000
      3205        48  DOPC      H16R           -3.9465327370      -19.2537456155        2.6580406498  MEMB      20              0.0000000000
      3206        48  DOPC      H16S           -4.4012322889      -17.6389987046        2.0201597346  MEMB      20              0.0000000000
      3207        48  DOPC      C217           -4.5150237276      -19.0591037837        0.5422378916  MEMB      20              0.0000000000
      3208        48  DOPC      H17R           -5.0295005766      -18.2925405897       -0.0738310866  MEMB      20              0.0000000000
      3209        48  DOPC      H17S           -5.0266465616      -20.0083437778        0.3106913445  MEMB      20              0.0000000000
      3210        48  DOPC      C218           -3.0419432340      -19.0961575724        0.0918155011  MEMB      20              0.0000000000
      3211        48  DOPC      H18R           -2.9288783823      -19.6308198308       -0.8760105551  MEMB      20              0.0000000000
      3212        48  DOPC      H18S           -2.4015591141      -19.6009383582        0.8447330259  MEMB      20              0.0000000000
      3213        48  DOPC      H18T           -2.6527263599      -18.0630496740       -0.0383786917  MEMB      20              0.0000000000
      3214        48  DOPC      C33            -4.0102418152      -19.9124732726       16.0904458853  MEMB      20              0.0000000000
      3215        48  DOPC      H3X            -3.4999493133      -19.1664202537       15.4476439539  MEMB      20              0.0000000000
      3216        48  DOPC      H3Y            -5.1084895734      -19.8751028747       15.9122749365  MEMB      20              0.0000000000
      3217        48  DOPC      C34            -3.3870426126      -21.1259928660       15.4339140198  MEMB      20              0.0000000000
      3218        48  DOPC      H4X            -3.9484820272      -22.0355197591       15.7408088014  MEMB      20              0.0000000000
      3219        48  DOPC      H4Y            -2.3358883580      -21.2707131064       15.7493719417  MEMB      20              0.0000000000
      3220        48  DOPC      C35            -3.5156622044      -20.9314600833       13.8914447045  MEMB      20              0.0000000000
      3221        48  DOPC      H5X            -4.6133296096      -21.0418433596       13.7276549418  MEMB      20              0.0000000000
      3222        48  DOPC      H5Y            -2.9906037256      -21.7919954234       13.4453143703  MEMB      20              0.0000000000
      3223        48  DOPC      C36            -3.0700793185      -19.5693020069       13.1985534915  MEMB      20              0.0000000000
      3224        48  DOPC      H6X            -3.8025988487      -18.8216607291       13.5952921158  MEMB      20              0.0000000000
      3225        48  DOPC      H6Y            -2.0782846367      -19.2944359099       13.5857817008  MEMB      20              0.0000000000
      3226        48  DOPC      C37            -3.1130369390      -19.1207483360       11.6667546371  MEMB      20              0.0000000000
      3227        48  DOPC      H7X            -4.1283207191      -18.9195577838       11.3204580971  MEMB      20              0.0000000000
      3228        48  DOPC      H7Y            -2.8526765441      -18.0650303569       11.8859367391  MEMB      20              0.0000000000
      3229        48  DOPC      C38            -1.9705131414      -19.3142995250       10.5288371375  MEMB      20              0.0000000000
      3230        48  DOPC      H8X            -1.0513475621      -19.3425651432       11.1405829844  MEMB      20              0.0000000000
      3231        48  DOPC      H8Y            -1.9163924561      -18.2543910200       10.1920245025  MEMB      20              0.0000000000
      3232        48  DOPC      C39            -1.4860517725      -20.0987571210        9.2459051337  MEMB      20              0.0000000000
      3233        48  DOPC      H9X            -0.4915282031      -19.7136935543        9.0516436740  MEMB      20              0.0000000000
      3234        48  DOPC      C310           -1.8055393266      -21.0760093541        8.2691724331  MEMB      20              0.0000000000
      3235        48  DOPC      H10X           -0.9521469194      -21.1615459578        7.5995403885  MEMB      20              0.0000000000
      3236        48  DOPC      C311           -2.8873663462      -22.0923023226        7.7880963702  MEMB      20              0.0000000000
      3237        48  DOPC      H11X           -3.3957927453      -22.6254343692        8.5989160166  MEMB      20              0.0000000000
      3238        48  DOPC      H11Y           -2.2290308108      -22.9340864447        7.4655369152  MEMB      20              0.0000000000
      3239        48  DOPC      C312           -3.8592625361      -22.1535772079        6.5241642669  MEMB      20              0.0000000000
      3240        48  DOPC      H12X           -4.2702587822      -23.1889605897        6.4965585455  MEMB      20              0.0000000000
      3241        48  DOPC      H12Y           -3.3046014426      -22.0412657741        5.5897909448  MEMB      20              0.0000000000
      3242        48  DOPC      C313           -4.9993530415      -21.1626972206        6.2609041663  MEMB      20              0.0000000000
      3243        48  DOPC      H13X           -5.3546461210      -20.6973678401        7.1781453077  MEMB      20              0.0000000000
      3244        48  DOPC      H13Y           -4.6081303101      -20.3517535692        5.6127447974  MEMB      20              0.0000000000
      3245        48  DOPC      C314           -6.3184800447      -21.7391351753        5.7103382322  MEMB      20              0.0000000000
      3246        48  DOPC      H14X           -6.6907598460      -22.4893427782        6.4457822308  MEMB      20              0.0000000000
      3247        48  DOPC      H14Y           -7.0430397756      -20.8891488351        5.7390188214  MEMB      20              0.0000000000
      3248        48  DOPC      C315           -6.3885689359      -22.3478714988        4.2913775730  MEMB      20              0.0000000000
      3249        48  DOPC      H15X           -7.3227242497      -21.9491977831        3.8284191989  MEMB      20              0.0000000000
      3250        48  DOPC      H15Y           -6.5334670157      -23.4441393245        4.3962231875  MEMB      20              0.0000000000
      3251        48  DOPC      C316           -5.2169967983      -22.1247515599        3.3165608107  MEMB      20              0.0000000000
      3252        48  DOPC      H16X           -4.8019166111      -21.1046995612        3.4258692176  MEMB      20              0.0000000000
      3253        48  DOPC      H16Y           -4.3911274979      -22.8137657459        3.5895929210  MEMB      20              0.0000000000
      3254        48  DOPC      C317           -5.6076025358      -22.3414654480        1.8352129961  MEMB      20              0.0000000000
      3255        48  DOPC      H17X           -6.1752259149      -23.2884422167        1.7265051846  MEMB      20              0.0000000000
      3256        48  DOPC      H17Y           -6.3161047441      -21.5373463916        1.5289012257  MEMB      20              0.0000000000
      3257        48  DOPC      C318           -4.4079511265      -22.3541458851        0.8709221442  MEMB      20              0.0000000000
      3258        48  DOPC      H18X           -4.7445680891      -22.2086569946       -0.1802669605  MEMB      20              0.0000000000
      3259        48  DOPC      H18Y           -3.7249050206      -21.5206304285        1.1308298783  MEMB      20              0.0000000000
      3260        48  DOPC      H18Z           -3.8093678433      -23.2835824295        0.9323433856  MEMB      20              0.0000000000
      3261        49  DOPC      N              18.5997029548       12.4877062556       18.9502305703  MEMB      21              0.0000000000
      3262        49  DOPC      C12            19.9768033526       13.0515180535       19.2564945830  MEMB      21              0.0000000000
      3263        49  DOPC      H12A           20.4209783304       13.4187864345       18.3261328727  MEMB      21              0.0000000000
      3264        49  DOPC      H12B           20.6195416037       12.2810180870       19.6592324865  MEMB      21              0.0000000000
      3265        49  DOPC      C13            18.6390954293       11.1557263366       18.2617787101  MEMB      21              0.0000000000
      3266        49  DOPC      H13A           19.0515686446       10.4148014416       18.9411150862  MEMB      21              0.0000000000
      3267        49  DOPC      H13B           17.6315838266       10.8134967693       18.0309524634  MEMB      21              0.0000000000
      3268        49  DOPC      H13C           19.1985719489       11.1672788494       17.3349645762  MEMB      21              0.0000000000
      3269        49  DOPC      C14            17.9167487405       13.5029991680       18.1120489245  MEMB      21              0.0000000000
      3270        49  DOPC      H14A           17.9998676081       14.4625314160       18.6461813702  MEMB      21              0.0000000000
      3271        49  DOPC      H14B           18.4169542825       13.6825120219       17.1670358034  MEMB      21              0.0000000000
      3272        49  DOPC      H14C           16.8544641220       13.3285138747       17.9793814424  MEMB      21              0.0000000000
      3273        49  DOPC      C15            17.8064155739       12.3423460554       20.2055181294  MEMB      21              0.0000000000
      3274        49  DOPC      H15A           16.7649387472       12.1451602560       19.9758391435  MEMB      21              0.0000000000
      3275        49  DOPC      H15B           17.8357333467       13.2870634814       20.7521489722  MEMB      21              0.0000000000
      3276        49  DOPC      H15C           18.2005721165       11.5356334110       20.8134323393  MEMB      21              0.0000000000
      3277        49  DOPC      C11            20.0309291580       14.2681771906       20.2294578714  MEMB      21              0.0000000000
      3278        49  DOPC      H11A           19.5303895114       14.0029502191       21.1830269758  MEMB      21              0.0000000000
      3279        49  DOPC      H11B           21.0974498186       14.4530783150       20.4886303922  MEMB      21              0.0000000000
      3280        49  DOPC      P              20.0888790379       16.2382305394       18.5038540358  MEMB      21              0.0000000000
      3281        49  DOPC      O13            21.0497682782       15.3452125074       17.8175071546  MEMB      21              0.0000000000
      3282        49  DOPC      O14            20.5718524759       17.5636311111       18.9611971608  MEMB      21              0.0000000000
      3283        49  DOPC      O12            19.4162094271       15.4524131174       19.7135277110  MEMB      21              0.0000000000
      3284        49  DOPC      O11            18.8061532158       16.4344180961       17.6021254237  MEMB      21              0.0000000000
      3285        49  DOPC      C1             17.6933177602       17.1149525253       18.2072515494  MEMB      21              0.0000000000
      3286        49  DOPC      HA             18.0114702431       18.0313451620       18.7603379875  MEMB      21              0.0000000000
      3287        49  DOPC      HB             17.1769944432       16.4447724062       18.9351233195  MEMB      21              0.0000000000
      3288        49  DOPC      C2             16.6821946542       17.5659189042       17.1224488083  MEMB      21              0.0000000000
      3289        49  DOPC      HS             15.6996162300       17.7822726432       17.6018709832  MEMB      21              0.0000000000
      3290        49  DOPC      O21            16.5046309966       16.5702799706       16.1188731883  MEMB      21              0.0000000000
      3291        49  DOPC      C21            16.0107368082       15.4077780452       16.4815619840  MEMB      21              0.0000000000
      3292        49  DOPC      O22            15.6175021343       15.0927033772       17.5925915175  MEMB      21              0.0000000000
      3293        49  DOPC      C22            15.9064408239       14.5284520847       15.2326551348  MEMB      21              0.0000000000
      3294        49  DOPC      H2R            15.2538073693       13.6609588866       15.4676959513  MEMB      21              0.0000000000
      3295        49  DOPC      H2S            16.9212440778       14.1600392528       14.9800525714  MEMB      21              0.0000000000
      3296        49  DOPC      C3             17.1668187708       18.8710632162       16.4102311438  MEMB      21              0.0000000000
      3297        49  DOPC      HX             17.1121639109       19.6900034625       17.1557997673  MEMB      21              0.0000000000
      3298        49  DOPC      HY             16.4572825563       19.1278960550       15.5883590185  MEMB      21              0.0000000000
      3299        49  DOPC      O31            18.5352764111       18.7772154488       15.9453728091  MEMB      21              0.0000000000
      3300        49  DOPC      C31            18.6584165633       18.0557578897       14.8233299531  MEMB      21              0.0000000000
      3301        49  DOPC      O32            17.7528193991       17.8357755344       14.0388649962  MEMB      21              0.0000000000
      3302        49  DOPC      C32            20.0906281012       17.5713429830       14.6488619684  MEMB      21              0.0000000000
      3303        49  DOPC      H2X            20.7108844774       18.4257952850       14.3182449014  MEMB      21              0.0000000000
      3304        49  DOPC      H2Y            20.4649266965       17.2054436989       15.6277006828  MEMB      21              0.0000000000
      3305        49  DOPC      C23            15.3268020658       15.3045298162       14.0276735521  MEMB      21              0.0000000000
      3306        49  DOPC      H3R            15.7580513727       16.3315640010       13.9508722390  MEMB      21              0.0000000000
      3307        49  DOPC      H3S            14.2260170019       15.4191104615       14.1550458342  MEMB      21              0.0000000000
      3308        49  DOPC      C24            15.6302575547       14.6411566304       12.6853394432  MEMB      21              0.0000000000
      3309        49  DOPC      H4R            15.2635877075       13.5901238165       12.6993565265  MEMB      21              0.0000000000
      3310        49  DOPC      H4S            16.7291716700       14.6262691405       12.5111805488  MEMB      21              0.0000000000
      3311        49  DOPC      C25            14.9316440967       15.4102597907       11.5635792861  MEMB      21              0.0000000000
      3312        49  DOPC      H5R            14.2533689216       16.1519563441       12.0405311346  MEMB      21              0.0000000000
      3313        49  DOPC      H5S            14.3073551095       14.7107528092       10.9661844843  MEMB      21              0.0000000000
      3314        49  DOPC      C26            15.8532792496       16.1873947862       10.6235649098  MEMB      21              0.0000000000
      3315        49  DOPC      H6R            16.7966223597       16.4806421651       11.1289028983  MEMB      21              0.0000000000
      3316        49  DOPC      H6S            15.3302421042       17.1339155333       10.3505447745  MEMB      21              0.0000000000
      3317        49  DOPC      C27            16.1083489914       15.4224715436        9.3201086597  MEMB      21              0.0000000000
      3318        49  DOPC      H7R            16.4465252470       16.1683043639        8.5693034003  MEMB      21              0.0000000000
      3319        49  DOPC      H7S            15.1442186954       15.0054951049        8.9505996791  MEMB      21              0.0000000000
      3320        49  DOPC      C28            17.1219606931       14.2686493967        9.4545813884  MEMB      21              0.0000000000
      3321        49  DOPC      H8R            17.0534695311       13.6335963816        8.5421668988  MEMB      21              0.0000000000
      3322        49  DOPC      H8S            16.8208224393       13.6190549555       10.3041025674  MEMB      21              0.0000000000
      3323        49  DOPC      C29            18.5206774877       14.7961296561        9.6573688963  MEMB      21              0.0000000000
      3324        49  DOPC      H9R            18.7224913586       15.1990028210       10.6628509348  MEMB      21              0.0000000000
      3325        49  DOPC      C210           19.5019480045       14.8212136442        8.7374353062  MEMB      21              0.0000000000
      3326        49  DOPC      H10R           20.4689099279       15.2748855830        9.0086643885  MEMB      21              0.0000000000
      3327        49  DOPC      C211           19.3920516425       14.3230827089        7.3162350585  MEMB      21              0.0000000000
      3328        49  DOPC      H11R           19.2381580796       13.2225513182        7.3139134628  MEMB      21              0.0000000000
      3329        49  DOPC      H11S           20.3645185161       14.4977379906        6.8020961316  MEMB      21              0.0000000000
      3330        49  DOPC      C212           18.2770794963       14.9893499753        6.4698626554  MEMB      21              0.0000000000
      3331        49  DOPC      H12R           18.7030583787       15.9173693630        6.0443411773  MEMB      21              0.0000000000
      3332        49  DOPC      H12S           17.4338254577       15.3350666399        7.0823164391  MEMB      21              0.0000000000
      3333        49  DOPC      C213           17.6542642714       14.0980397949        5.3736535560  MEMB      21              0.0000000000
      3334        49  DOPC      H13R           17.1079019560       13.2608016319        5.8671003275  MEMB      21              0.0000000000
      3335        49  DOPC      H13S           18.4578419298       13.6386708036        4.7626358372  MEMB      21              0.0000000000
      3336        49  DOPC      C214           16.6662290949       14.8563007716        4.4507433750  MEMB      21              0.0000000000
      3337        49  DOPC      H14R           15.7483680922       15.0513572082        5.0491129379  MEMB      21              0.0000000000
      3338        49  DOPC      H14S           16.3774207340       14.2025388201        3.6000030441  MEMB      21              0.0000000000
      3339        49  DOPC      C215           17.1825604586       16.2220729798        3.9362926549  MEMB      21              0.0000000000
      3340        49  DOPC      H15R           18.2711916426       16.2335767044        4.0954646333  MEMB      21              0.0000000000
      3341        49  DOPC      H15S           16.7592548508       17.0121005736        4.5929041226  MEMB      21              0.0000000000
      3342        49  DOPC      C216           16.9250750997       16.5833880935        2.4559207970  MEMB      21              0.0000000000
      3343        49  DOPC      H16R           15.9772500583       16.1153102809        2.1310131543  MEMB      21              0.0000000000
      3344        49  DOPC      H16S           17.6984177599       16.1637918885        1.7865492567  MEMB      21              0.0000000000
      3345        49  DOPC      C217           16.8491414223       18.0990250796        2.1761479366  MEMB      21              0.0000000000
      3346        49  DOPC      H17R           16.2988393986       18.5933615163        3.0058978271  MEMB      21              0.0000000000
      3347        49  DOPC      H17S           16.2527320735       18.2354631548        1.2455701680  MEMB      21              0.0000000000
      3348        49  DOPC      C218           18.1998178667       18.7978894746        1.9667895607  MEMB      21              0.0000000000
      3349        49  DOPC      H18R           18.0715975960       19.8144232298        1.5396653190  MEMB      21              0.0000000000
      3350        49  DOPC      H18S           18.8582645799       18.2094056938        1.2924245943  MEMB      21              0.0000000000
      3351        49  DOPC      H18T           18.7169405160       18.9063268704        2.9334855947  MEMB      21              0.0000000000
      3352        49  DOPC      C33            20.1139058089       16.4243514162       13.6204580858  MEMB      21              0.0000000000
      3353        49  DOPC      H3X            19.6392397952       16.7453510063       12.6637890752  MEMB      21              0.0000000000
      3354        49  DOPC      H3Y            19.5085459187       15.5727011205       14.0181704113  MEMB      21              0.0000000000
      3355        49  DOPC      C34            21.5204528832       15.9057249556       13.3235877614  MEMB      21              0.0000000000
      3356        49  DOPC      H4X            21.4106109685       15.0286441935       12.6471866106  MEMB      21              0.0000000000
      3357        49  DOPC      H4Y            21.9682408426       15.5433825899       14.2776787280  MEMB      21              0.0000000000
      3358        49  DOPC      C35            22.4662350873       16.9275488761       12.6702493550  MEMB      21              0.0000000000
      3359        49  DOPC      H5X            23.4630992475       16.4514533839       12.5795448963  MEMB      21              0.0000000000
      3360        49  DOPC      H5Y            22.6039255714       17.8169318135       13.3214508246  MEMB      21              0.0000000000
      3361        49  DOPC      C36            22.0535043670       17.3743979878       11.2610121338  MEMB      21              0.0000000000
      3362        49  DOPC      H6X            21.7223262118       16.4918907017       10.6699264193  MEMB      21              0.0000000000
      3363        49  DOPC      H6Y            21.1897936887       18.0702200124       11.3416105106  MEMB      21              0.0000000000
      3364        49  DOPC      C37            23.2242311507       18.0462246148       10.5205327180  MEMB      21              0.0000000000
      3365        49  DOPC      H7X            23.6526942541       18.8422936977       11.1705767519  MEMB      21              0.0000000000
      3366        49  DOPC      H7Y            24.0320187124       17.2941778798       10.3676358730  MEMB      21              0.0000000000
      3367        49  DOPC      C38            22.8525183273       18.6578352406        9.1610418780  MEMB      21              0.0000000000
      3368        49  DOPC      H8X            22.4450202139       17.8590781634        8.5044819689  MEMB      21              0.0000000000
      3369        49  DOPC      H8Y            23.7874186392       19.0308561280        8.6807853128  MEMB      21              0.0000000000
      3370        49  DOPC      C39            21.8967147113       19.8041604980        9.3763153116  MEMB      21              0.0000000000
      3371        49  DOPC      H9X            22.2019739979       20.4854949864       10.1847615194  MEMB      21              0.0000000000
      3372        49  DOPC      C310           20.7535291755       20.0571952341        8.7140459086  MEMB      21              0.0000000000
      3373        49  DOPC      H10X           20.1789563614       20.9626428188        8.9671244636  MEMB      21              0.0000000000
      3374        49  DOPC      C311           20.1770655646       19.2342091470        7.5919455109  MEMB      21              0.0000000000
      3375        49  DOPC      H11X           19.0696992662       19.1708799447        7.6736712090  MEMB      21              0.0000000000
      3376        49  DOPC      H11Y           20.5509568049       18.1888958612        7.6300252624  MEMB      21              0.0000000000
      3377        49  DOPC      C312           20.5528409402       19.8707333185        6.2404511701  MEMB      21              0.0000000000
      3378        49  DOPC      H12X           21.6609785260       19.9758249703        6.1807076929  MEMB      21              0.0000000000
      3379        49  DOPC      H12Y           20.1132400761       20.8906623162        6.1637720018  MEMB      21              0.0000000000
      3380        49  DOPC      C313           20.1137894758       19.0394724784        5.0282979760  MEMB      21              0.0000000000
      3381        49  DOPC      H13X           19.0153213439       18.8583891004        5.0832108213  MEMB      21              0.0000000000
      3382        49  DOPC      H13Y           20.3301171170       19.6231047486        4.1058176928  MEMB      21              0.0000000000
      3383        49  DOPC      C314           20.8645181656       17.7048535158        4.9795734473  MEMB      21              0.0000000000
      3384        49  DOPC      H14X           21.9437767952       17.8857372064        5.1757790022  MEMB      21              0.0000000000
      3385        49  DOPC      H14Y           20.4792610841       17.0840103584        5.8176086176  MEMB      21              0.0000000000
      3386        49  DOPC      C315           20.7606591203       16.8667722988        3.6965620527  MEMB      21              0.0000000000
      3387        49  DOPC      H15X           21.5029446870       17.2323558602        2.9686187469  MEMB      21              0.0000000000
      3388        49  DOPC      H15Y           19.7911084866       17.0125246914        3.1944831924  MEMB      21              0.0000000000
      3389        49  DOPC      C316           20.9201191777       15.3830360343        4.0921268640  MEMB      21              0.0000000000
      3390        49  DOPC      H16X           21.8517142157       15.2525108228        4.6814481308  MEMB      21              0.0000000000
      3391        49  DOPC      H16Y           20.0905230482       15.1826451034        4.7866488961  MEMB      21              0.0000000000
      3392        49  DOPC      C317           20.7862722498       14.2849846865        3.0256429359  MEMB      21              0.0000000000
      3393        49  DOPC      H17X           21.6919554993       14.2813550071        2.4025620283  MEMB      21              0.0000000000
      3394        49  DOPC      H17Y           20.7478978605       13.3019465177        3.5519452389  MEMB      21              0.0000000000
      3395        49  DOPC      C318           19.5776624744       14.4111116897        2.1061185289  MEMB      21              0.0000000000
      3396        49  DOPC      H18X           19.5698176845       15.4270265359        1.6598899189  MEMB      21              0.0000000000
      3397        49  DOPC      H18Y           19.6105181628       13.6731090296        1.2797329558  MEMB      21              0.0000000000
      3398        49  DOPC      H18Z           18.6323998815       14.2616880691        2.6682360633  MEMB      21              0.0000000000
      3399        50  DOPC      N              14.4765187606       20.9192242226       19.6792380963  MEMB      22              0.0000000000
      3400        50  DOPC      C12            13.7495855562       21.3689620470       18.4147202786  MEMB      22              0.0000000000
      3401        50  DOPC      H12A           14.4151810525       21.2905750092       17.5697213457  MEMB      22              0.0000000000
      3402        50  DOPC      H12B           13.4761517599       22.4237516921       18.4920304088  MEMB      22              0.0000000000
      3403        50  DOPC      C13            15.8729065464       21.4478535255       19.7876610419  MEMB      22              0.0000000000
      3404        50  DOPC      H13A           15.9246850407       22.5281942636       19.6921770287  MEMB      22              0.0000000000
      3405        50  DOPC      H13B           16.2691482057       21.2062209316       20.7760068771  MEMB      22              0.0000000000
      3406        50  DOPC      H13C           16.5182282863       21.0325336757       19.0375198669  MEMB      22              0.0000000000
      3407        50  DOPC      C14            14.5068794646       19.4201088560       19.7728539485  MEMB      22              0.0000000000
      3408        50  DOPC      H14A           13.4907915050       19.0418218620       19.9161710191  MEMB      22              0.0000000000
      3409        50  DOPC      H14B           14.8497492213       18.9723686483       18.8485746410  MEMB      22              0.0000000000
      3410        50  DOPC      H14C           15.1211602062       19.0669641673       20.5880912656  MEMB      22              0.0000000000
      3411        50  DOPC      C15            13.6926825263       21.4576552457       20.8354402223  MEMB      22              0.0000000000
      3412        50  DOPC      H15A           13.8551181755       22.5206948090       20.9795538362  MEMB      22              0.0000000000
      3413        50  DOPC      H15B           13.9327505273       20.9430993104       21.7489073287  MEMB      22              0.0000000000
      3414        50  DOPC      H15C           12.6284162299       21.3427460202       20.6264429203  MEMB      22              0.0000000000
      3415        50  DOPC      C11            12.4401141297       20.6163950430       18.0449169873  MEMB      22              0.0000000000
      3416        50  DOPC      H11A           12.1462245982       20.9450076272       17.0220025702  MEMB      22              0.0000000000
      3417        50  DOPC      H11B           12.6365109269       19.5275623325       17.9511744543  MEMB      22              0.0000000000
      3418        50  DOPC      P              10.3480617113       21.9778957679       18.9097671128  MEMB      22              0.0000000000
      3419        50  DOPC      O13            11.0524490605       23.1730748866       19.4011809249  MEMB      22              0.0000000000
      3420        50  DOPC      O14             9.0709293804       21.6210110389       19.5894843728  MEMB      22              0.0000000000
      3421        50  DOPC      O12            11.3918093167       20.7994784057       18.9981296950  MEMB      22              0.0000000000
      3422        50  DOPC      O11            10.1153716613       22.1242772674       17.3776837126  MEMB      22              0.0000000000
      3423        50  DOPC      C1              9.5290224661       21.1568036419       16.5230348235  MEMB      22              0.0000000000
      3424        50  DOPC      HA              8.5198930807       20.8878918390       16.8909042586  MEMB      22              0.0000000000
      3425        50  DOPC      HB             10.1201079881       20.2146848738       16.4871049441  MEMB      22              0.0000000000
      3426        50  DOPC      C2              9.3913107618       21.8288603184       15.1323117609  MEMB      22              0.0000000000
      3427        50  DOPC      HS              8.7529517383       21.2077534044       14.4666938012  MEMB      22              0.0000000000
      3428        50  DOPC      O21            10.6663269085       22.0538476757       14.5133700555  MEMB      22              0.0000000000
      3429        50  DOPC      C21            11.4396177841       21.0262842857       14.2858634242  MEMB      22              0.0000000000
      3430        50  DOPC      O22            11.1485791425       19.8498544070       14.4057782608  MEMB      22              0.0000000000
      3431        50  DOPC      C22            12.8275478986       21.5280303465       13.8953732169  MEMB      22              0.0000000000
      3432        50  DOPC      H2R            13.4372053280       21.5588602157       14.8216952342  MEMB      22              0.0000000000
      3433        50  DOPC      H2S            12.7487962952       22.5578841728       13.4920612719  MEMB      22              0.0000000000
      3434        50  DOPC      C3              8.6935489101       23.2081751895       15.3437671201  MEMB      22              0.0000000000
      3435        50  DOPC      HX              9.3112558183       23.8419873571       16.0245332698  MEMB      22              0.0000000000
      3436        50  DOPC      HY              7.7477906051       23.0141456441       15.8907830653  MEMB      22              0.0000000000
      3437        50  DOPC      O31             8.3873155341       23.8820292952       14.1075902623  MEMB      22              0.0000000000
      3438        50  DOPC      C31             9.3885747639       24.6451526211       13.6496035933  MEMB      22              0.0000000000
      3439        50  DOPC      O32            10.4617556992       24.8076668118       14.1976750471  MEMB      22              0.0000000000
      3440        50  DOPC      C32             8.9703483953       25.3226998228       12.3636933054  MEMB      22              0.0000000000
      3441        50  DOPC      H2X             8.7652905857       24.5385205203       11.6076398854  MEMB      22              0.0000000000
      3442        50  DOPC      H2Y             8.0279184958       25.8730667091       12.5562340128  MEMB      22              0.0000000000
      3443        50  DOPC      C23            13.4948522792       20.5876128850       12.8712065467  MEMB      22              0.0000000000
      3444        50  DOPC      H3R            13.4289321134       19.5316898955       13.2249365511  MEMB      22              0.0000000000
      3445        50  DOPC      H3S            14.5763823389       20.8440278531       12.7981529722  MEMB      22              0.0000000000
      3446        50  DOPC      C24            12.8870503159       20.6650642520       11.4647338446  MEMB      22              0.0000000000
      3447        50  DOPC      H4R            11.8148507356       20.3680757048       11.4992397619  MEMB      22              0.0000000000
      3448        50  DOPC      H4S            13.4150935325       19.9118034484       10.8339889431  MEMB      22              0.0000000000
      3449        50  DOPC      C25            13.0236931678       22.0356622286       10.7835658560  MEMB      22              0.0000000000
      3450        50  DOPC      H5R            14.0434602713       22.4398516865       10.9796865887  MEMB      22              0.0000000000
      3451        50  DOPC      H5S            12.2928709277       22.7550436837       11.2173579420  MEMB      22              0.0000000000
      3452        50  DOPC      C26            12.8257685756       21.9424743772        9.2624845271  MEMB      22              0.0000000000
      3453        50  DOPC      H6R            13.5950244886       21.2528321210        8.8460247887  MEMB      22              0.0000000000
      3454        50  DOPC      H6S            13.0055644727       22.9379506287        8.8010967983  MEMB      22              0.0000000000
      3455        50  DOPC      C27            11.4388670383       21.4217140479        8.8425116443  MEMB      22              0.0000000000
      3456        50  DOPC      H7R            11.2623328296       20.4180317269        9.2880258921  MEMB      22              0.0000000000
      3457        50  DOPC      H7S            11.4508606812       21.2686092266        7.7415562297  MEMB      22              0.0000000000
      3458        50  DOPC      C28            10.2575269685       22.3378351958        9.2335366133  MEMB      22              0.0000000000
      3459        50  DOPC      H8R            10.1170792678       22.2824532132       10.3366740654  MEMB      22              0.0000000000
      3460        50  DOPC      H8S             9.3346147651       21.9148449964        8.7763417941  MEMB      22              0.0000000000
      3461        50  DOPC      C29            10.4275462648       23.7794976142        8.8256307077  MEMB      22              0.0000000000
      3462        50  DOPC      H9R            10.4187743118       24.4999653753        9.6552459393  MEMB      22              0.0000000000
      3463        50  DOPC      C210           10.5511651510       24.2310662133        7.5668987589  MEMB      22              0.0000000000
      3464        50  DOPC      H10R           10.6481018294       25.3129800245        7.3819369506  MEMB      22              0.0000000000
      3465        50  DOPC      C211           10.5333095011       23.3583503353        6.3423832466  MEMB      22              0.0000000000
      3466        50  DOPC      H11R           10.0344909833       22.3869869227        6.5632163358  MEMB      22              0.0000000000
      3467        50  DOPC      H11S           11.5667700059       23.1266195304        6.0027704298  MEMB      22              0.0000000000
      3468        50  DOPC      C212            9.7556517665       23.9951431070        5.1895445214  MEMB      22              0.0000000000
      3469        50  DOPC      H12R           10.4521589321       24.5504807920        4.5238378140  MEMB      22              0.0000000000
      3470        50  DOPC      H12S            9.0300145107       24.7449258232        5.5611325709  MEMB      22              0.0000000000
      3471        50  DOPC      C213            9.0132629293       22.9420967164        4.3550347095  MEMB      22              0.0000000000
      3472        50  DOPC      H13R            8.5236793099       23.5261912574        3.5536669753  MEMB      22              0.0000000000
      3473        50  DOPC      H13S            8.2391939380       22.4108541664        4.9545445659  MEMB      22              0.0000000000
      3474        50  DOPC      C214            9.9939166992       21.9593981451        3.7313581663  MEMB      22              0.0000000000
      3475        50  DOPC      H14R           10.3349154202       21.1975734196        4.4616660527  MEMB      22              0.0000000000
      3476        50  DOPC      H14S           10.8824867584       22.5961177884        3.4953369394  MEMB      22              0.0000000000
      3477        50  DOPC      C215            9.5967513388       21.2961823119        2.4018115509  MEMB      22              0.0000000000
      3478        50  DOPC      H15R            8.8664748561       21.9138839537        1.8503063464  MEMB      22              0.0000000000
      3479        50  DOPC      H15S            9.0837365939       20.3380597671        2.5783044468  MEMB      22              0.0000000000
      3480        50  DOPC      C216           10.9106035528       21.2227024742        1.6074788821  MEMB      22              0.0000000000
      3481        50  DOPC      H16R           11.7181395127       20.9870936953        2.3422202542  MEMB      22              0.0000000000
      3482        50  DOPC      H16S           11.0711375206       22.2521356659        1.2209564684  MEMB      22              0.0000000000
      3483        50  DOPC      C217           11.1326749315       20.2705044228        0.4345449685  MEMB      22              0.0000000000
      3484        50  DOPC      H17R           10.9387869669       19.2155349882        0.7090673309  MEMB      22              0.0000000000
      3485        50  DOPC      H17S           12.2290025435       20.3438815104        0.2293227896  MEMB      22              0.0000000000
      3486        50  DOPC      C218           10.4234573395       20.6485494006       -0.8589079037  MEMB      22              0.0000000000
      3487        50  DOPC      H18R            9.3318300401       20.4619750549       -0.7727986203  MEMB      22              0.0000000000
      3488        50  DOPC      H18S           10.8143840646       20.0433528373       -1.7011771791  MEMB      22              0.0000000000
      3489        50  DOPC      H18T           10.5971713145       21.7178166492       -1.1069526579  MEMB      22              0.0000000000
      3490        50  DOPC      C33            10.0732263830       26.2916708390       11.8842981100  MEMB      22              0.0000000000
      3491        50  DOPC      H3X            11.0001181984       25.7141980602       11.6712026626  MEMB      22              0.0000000000
      3492        50  DOPC      H3Y            10.3069177597       27.0317820413       12.6871283344  MEMB      22              0.0000000000
      3493        50  DOPC      C34             9.6421190734       27.0615699593       10.6349902619  MEMB      22              0.0000000000
      3494        50  DOPC      H4X             8.6942281259       27.5796083774       10.8752756055  MEMB      22              0.0000000000
      3495        50  DOPC      H4Y             9.4280114814       26.3363862115        9.8196976277  MEMB      22              0.0000000000
      3496        50  DOPC      C35            10.6662324004       28.0709296280       10.0998764297  MEMB      22              0.0000000000
      3497        50  DOPC      H5X            10.8703282812       28.8658413947       10.8511611979  MEMB      22              0.0000000000
      3498        50  DOPC      H5Y            10.2443596543       28.5669936068        9.1967585851  MEMB      22              0.0000000000
      3499        50  DOPC      C36            11.9541547761       27.3542145740        9.7131269225  MEMB      22              0.0000000000
      3500        50  DOPC      H6X            12.6204835660       27.2982762233       10.6006639470  MEMB      22              0.0000000000
      3501        50  DOPC      H6Y            11.6785488642       26.3127996256        9.4388273329  MEMB      22              0.0000000000
      3502        50  DOPC      C37            12.7194190792       27.9413974863        8.5237683177  MEMB      22              0.0000000000
      3503        50  DOPC      H7X            12.1167995204       27.8517932446        7.5901698541  MEMB      22              0.0000000000
      3504        50  DOPC      H7Y            12.9002147119       29.0237265031        8.6829684253  MEMB      22              0.0000000000
      3505        50  DOPC      C38            14.0644099133       27.2138279355        8.3647390118  MEMB      22              0.0000000000
      3506        50  DOPC      H8X            14.6155026518       27.2587518798        9.3289633915  MEMB      22              0.0000000000
      3507        50  DOPC      H8Y            14.6857798217       27.7678786520        7.6255397459  MEMB      22              0.0000000000
      3508        50  DOPC      C39            13.8137992110       25.7765656634        7.9716882404  MEMB      22              0.0000000000
      3509        50  DOPC      H9X            13.3681989411       25.1334437556        8.7471333991  MEMB      22              0.0000000000
      3510        50  DOPC      C310           14.0528050973       25.2660018330        6.7571006267  MEMB      22              0.0000000000
      3511        50  DOPC      H10X           13.7500768996       24.2340507413        6.5189413076  MEMB      22              0.0000000000
      3512        50  DOPC      C311           14.6097253090       26.0940200749        5.6397019399  MEMB      22              0.0000000000
      3513        50  DOPC      H11X           15.6674161017       26.3610529018        5.8623491977  MEMB      22              0.0000000000
      3514        50  DOPC      H11Y           14.0413760513       27.0471838392        5.5863610987  MEMB      22              0.0000000000
      3515        50  DOPC      C312           14.5571054330       25.4299731203        4.2598168955  MEMB      22              0.0000000000
      3516        50  DOPC      H12X           15.1016580321       24.4621783760        4.2552587194  MEMB      22              0.0000000000
      3517        50  DOPC      H12Y           15.1013332007       26.1127249084        3.5640728352  MEMB      22              0.0000000000
      3518        50  DOPC      C313           13.1267232675       25.2466153328        3.7378832997  MEMB      22              0.0000000000
      3519        50  DOPC      H13X           12.6776336340       24.3082477951        4.1230126150  MEMB      22              0.0000000000
      3520        50  DOPC      H13Y           12.5092310561       26.0902638280        4.1259117173  MEMB      22              0.0000000000
      3521        50  DOPC      C314           13.0734365994       25.2906620203        2.2081608942  MEMB      22              0.0000000000
      3522        50  DOPC      H14X           12.0447596812       25.5577693471        1.8820532645  MEMB      22              0.0000000000
      3523        50  DOPC      H14Y           13.7529572439       26.0965390535        1.8606425653  MEMB      22              0.0000000000
      3524        50  DOPC      C315           13.4896917082       23.9876382071        1.5401694169  MEMB      22              0.0000000000
      3525        50  DOPC      H15X           12.7049600082       23.2403849762        1.7674997538  MEMB      22              0.0000000000
      3526        50  DOPC      H15Y           14.4323392217       23.6117780516        1.9895753338  MEMB      22              0.0000000000
      3527        50  DOPC      C316           13.6448329686       24.1320470745        0.0200266300  MEMB      22              0.0000000000
      3528        50  DOPC      H16X           13.8735631237       23.1243347598       -0.3896801645  MEMB      22              0.0000000000
      3529        50  DOPC      H16Y           12.6737443426       24.4523718329       -0.4125429128  MEMB      22              0.0000000000
      3530        50  DOPC      C317           14.7069297546       25.1459702376       -0.4504947138  MEMB      22              0.0000000000
      3531        50  DOPC      H17X           14.6365404149       25.2442648808       -1.5559441518  MEMB      22              0.0000000000
      3532        50  DOPC      H17Y           14.4804960596       26.1589041906       -0.0541004881  MEMB      22              0.0000000000
      3533        50  DOPC      C318           16.1449906578       24.7774051630       -0.0940887834  MEMB      22              0.0000000000
      3534        50  DOPC      H18X           16.8562751911       25.4567109589       -0.6160713658  MEMB      22              0.0000000000
      3535        50  DOPC      H18Y           16.3109955456       24.8727753534        1.0008189944  MEMB      22              0.0000000000
      3536        50  DOPC      H18Z           16.3792263041       23.7335323211       -0.3970862905  MEMB      22              0.0000000000
      3537        51  DOPC      N             -18.4838737893       19.6550772811       20.4215350802  MEMB      23              0.0000000000
      3538        51  DOPC      C12           -17.2728713254       18.8915754058       20.9446980809  MEMB      23              0.0000000000
      3539        51  DOPC      H12A          -17.4522177994       18.5889735369       21.9680962326  MEMB      23              0.0000000000
      3540        51  DOPC      H12B          -16.4078885149       19.5407558161       20.9466432840  MEMB      23              0.0000000000
      3541        51  DOPC      C13           -18.1592788486       20.2670559606       19.0964508985  MEMB      23              0.0000000000
      3542        51  DOPC      H13A          -17.2443610157       20.8298431252       19.1613743895  MEMB      23              0.0000000000
      3543        51  DOPC      H13B          -18.0131303735       19.4456602759       18.3979202111  MEMB      23              0.0000000000
      3544        51  DOPC      H13C          -18.9693196196       20.8888005256       18.7431861797  MEMB      23              0.0000000000
      3545        51  DOPC      C14           -18.9185932489       20.7554889875       21.3327342412  MEMB      23              0.0000000000
      3546        51  DOPC      H14A          -18.0851273562       21.3895040707       21.6295311384  MEMB      23              0.0000000000
      3547        51  DOPC      H14B          -19.6456012541       21.3894216640       20.8306880575  MEMB      23              0.0000000000
      3548        51  DOPC      H14C          -19.3899880279       20.3617776646       22.2219648248  MEMB      23              0.0000000000
      3549        51  DOPC      C15           -19.5728583030       18.6573381940       20.1745425165  MEMB      23              0.0000000000
      3550        51  DOPC      H15A          -19.7937870990       18.0602625159       21.0444415448  MEMB      23              0.0000000000
      3551        51  DOPC      H15B          -19.2153712897       17.9423533261       19.4184392306  MEMB      23              0.0000000000
      3552        51  DOPC      H15C          -20.4521175689       19.1391023984       19.7747469836  MEMB      23              0.0000000000
      3553        51  DOPC      C11           -16.9071882786       17.5664408542       20.2255512770  MEMB      23              0.0000000000
      3554        51  DOPC      H11A          -15.8569451957       17.3040793663       20.4812221526  MEMB      23              0.0000000000
      3555        51  DOPC      H11B          -17.5620421682       16.7521663961       20.6209140670  MEMB      23              0.0000000000
      3556        51  DOPC      P             -17.2379221011       16.4881963074       17.8500730859  MEMB      23              0.0000000000
      3557        51  DOPC      O13           -18.6937239207       16.3160712133       17.6127245892  MEMB      23              0.0000000000
      3558        51  DOPC      O14           -16.4325481909       15.3237833532       18.2995579512  MEMB      23              0.0000000000
      3559        51  DOPC      O12           -17.0414135646       17.7011301104       18.8283955398  MEMB      23              0.0000000000
      3560        51  DOPC      O11           -16.5183705772       17.1042885443       16.5945915771  MEMB      23              0.0000000000
      3561        51  DOPC      C1            -16.3330110958       18.4942132308       16.3682909948  MEMB      23              0.0000000000
      3562        51  DOPC      HA            -15.4019588793       18.6255352753       15.7716870402  MEMB      23              0.0000000000
      3563        51  DOPC      HB            -16.1959795602       19.0902483134       17.2963858413  MEMB      23              0.0000000000
      3564        51  DOPC      C2            -17.5030555333       19.0319381707       15.5341920297  MEMB      23              0.0000000000
      3565        51  DOPC      HS            -18.4449103269       18.8976665518       16.1226607660  MEMB      23              0.0000000000
      3566        51  DOPC      O21           -17.4921011906       18.2643737235       14.3250237380  MEMB      23              0.0000000000
      3567        51  DOPC      C21           -18.6606995049       17.8553690733       13.9039896952  MEMB      23              0.0000000000
      3568        51  DOPC      O22           -19.7495218961       18.2292200617       14.3010918926  MEMB      23              0.0000000000
      3569        51  DOPC      C22           -18.4508531940       16.8262626258       12.7997856664  MEMB      23              0.0000000000
      3570        51  DOPC      H2R           -19.4333599975       16.6162740122       12.3298484313  MEMB      23              0.0000000000
      3571        51  DOPC      H2S           -18.0789776377       15.8998226030       13.2862439225  MEMB      23              0.0000000000
      3572        51  DOPC      C3            -17.2797047280       20.5293163858       15.2271222948  MEMB      23              0.0000000000
      3573        51  DOPC      HX            -16.2211569808       20.6436813905       14.9125908693  MEMB      23              0.0000000000
      3574        51  DOPC      HY            -17.4209667419       21.1151070794       16.1645128419  MEMB      23              0.0000000000
      3575        51  DOPC      O31           -18.0952121626       20.9553474963       14.1304915662  MEMB      23              0.0000000000
      3576        51  DOPC      C31           -19.1185660658       21.7322802776       14.4042884192  MEMB      23              0.0000000000
      3577        51  DOPC      O32           -19.3342312037       22.2819394071       15.4744331780  MEMB      23              0.0000000000
      3578        51  DOPC      C32           -19.9271278864       21.9017497417       13.1392439525  MEMB      23              0.0000000000
      3579        51  DOPC      H2X           -20.2974168600       20.8989254582       12.8433380965  MEMB      23              0.0000000000
      3580        51  DOPC      H2Y           -20.7802592660       22.5286316268       13.4422850362  MEMB      23              0.0000000000
      3581        51  DOPC      C23           -17.4351861934       17.3074878403       11.7385786048  MEMB      23              0.0000000000
      3582        51  DOPC      H3R           -17.3025825153       16.4844590078       11.0053840022  MEMB      23              0.0000000000
      3583        51  DOPC      H3S           -16.4386434145       17.4796871664       12.2020824177  MEMB      23              0.0000000000
      3584        51  DOPC      C24           -17.8906377974       18.5883251051       11.0200746049  MEMB      23              0.0000000000
      3585        51  DOPC      H4R           -18.0110356874       19.4029240843       11.7706473510  MEMB      23              0.0000000000
      3586        51  DOPC      H4S           -18.8875448917       18.4149471463       10.5579274510  MEMB      23              0.0000000000
      3587        51  DOPC      C25           -16.9199983642       19.0861567741        9.9347767334  MEMB      23              0.0000000000
      3588        51  DOPC      H5R           -15.9876914137       19.4589487114       10.4160889364  MEMB      23              0.0000000000
      3589        51  DOPC      H5S           -17.3890310509       19.9545220187        9.4211394224  MEMB      23              0.0000000000
      3590        51  DOPC      C26           -16.5416198048       18.0336657423        8.8774868832  MEMB      23              0.0000000000
      3591        51  DOPC      H6R           -15.8095189891       17.3265769825        9.3275860170  MEMB      23              0.0000000000
      3592        51  DOPC      H6S           -16.0313437503       18.5498717174        8.0324293475  MEMB      23              0.0000000000
      3593        51  DOPC      C27           -17.7230174034       17.2213405432        8.3175320759  MEMB      23              0.0000000000
      3594        51  DOPC      H7R           -18.2376936785       16.6847475312        9.1432192013  MEMB      23              0.0000000000
      3595        51  DOPC      H7S           -17.3197541657       16.4411539370        7.6318859374  MEMB      23              0.0000000000
      3596        51  DOPC      C28           -18.7346946218       18.0848571996        7.5486795913  MEMB      23              0.0000000000
      3597        51  DOPC      H8R           -18.2294515568       18.4703509878        6.6354797751  MEMB      23              0.0000000000
      3598        51  DOPC      H8S           -18.9891830122       18.9781206641        8.1560275006  MEMB      23              0.0000000000
      3599        51  DOPC      C29           -19.9944891408       17.3178448647        7.2333181794  MEMB      23              0.0000000000
      3600        51  DOPC      H9R           -20.6629745502       17.1455541265        8.0926462466  MEMB      23              0.0000000000
      3601        51  DOPC      C210          -20.3345078407       16.8167273626        6.0356070768  MEMB      23              0.0000000000
      3602        51  DOPC      H10R          -21.2912232981       16.2798879718        5.9349513752  MEMB      23              0.0000000000
      3603        51  DOPC      C211          -19.5216447793       16.9197111001        4.7726005801  MEMB      23              0.0000000000
      3604        51  DOPC      H11R          -19.5483594786       15.9380677426        4.2475001746  MEMB      23              0.0000000000
      3605        51  DOPC      H11S          -18.4454663322       17.1270630255        4.9736893306  MEMB      23              0.0000000000
      3606        51  DOPC      C212          -20.0491919211       17.9861134233        3.8006731132  MEMB      23              0.0000000000
      3607        51  DOPC      H12R          -21.1483119887       17.8976177805        3.6536808372  MEMB      23              0.0000000000
      3608        51  DOPC      H12S          -19.5756633614       17.7558402743        2.8159004504  MEMB      23              0.0000000000
      3609        51  DOPC      C213          -19.6780359367       19.4409000830        4.1533014823  MEMB      23              0.0000000000
      3610        51  DOPC      H13R          -18.6670103405       19.4714282501        4.6129897035  MEMB      23              0.0000000000
      3611        51  DOPC      H13S          -20.3911179595       19.8545885277        4.8976430328  MEMB      23              0.0000000000
      3612        51  DOPC      C214          -19.6717327981       20.2639989227        2.8618570261  MEMB      23              0.0000000000
      3613        51  DOPC      H14R          -20.7132667760       20.3258459083        2.4769677967  MEMB      23              0.0000000000
      3614        51  DOPC      H14S          -19.0648450108       19.6925545830        2.1225367134  MEMB      23              0.0000000000
      3615        51  DOPC      C215          -19.0389322253       21.6587550916        2.8662124517  MEMB      23              0.0000000000
      3616        51  DOPC      H15R          -17.9570497130       21.5776398220        3.0778097106  MEMB      23              0.0000000000
      3617        51  DOPC      H15S          -19.4457646322       22.3043995336        3.6587382217  MEMB      23              0.0000000000
      3618        51  DOPC      C216          -19.1887555891       22.2365614757        1.4531738857  MEMB      23              0.0000000000
      3619        51  DOPC      H16R          -20.1238399843       21.8473108634        0.9901126766  MEMB      23              0.0000000000
      3620        51  DOPC      H16S          -18.3365313398       21.8335377770        0.8596521818  MEMB      23              0.0000000000
      3621        51  DOPC      C217          -19.1991830954       23.7547801282        1.3099948868  MEMB      23              0.0000000000
      3622        51  DOPC      H17R          -18.9006539809       24.2481232328        2.2609156577  MEMB      23              0.0000000000
      3623        51  DOPC      H17S          -20.2321258515       24.0622961446        1.0319047963  MEMB      23              0.0000000000
      3624        51  DOPC      C218          -18.2956776512       24.2350742762        0.1911702477  MEMB      23              0.0000000000
      3625        51  DOPC      H18R          -18.4538239142       25.3181695210        0.0016447742  MEMB      23              0.0000000000
      3626        51  DOPC      H18S          -18.5385816164       23.6804035004       -0.7398540982  MEMB      23              0.0000000000
      3627        51  DOPC      H18T          -17.2319348472       24.0568886105        0.4538566438  MEMB      23              0.0000000000
      3628        51  DOPC      C33           -19.1299552041       22.5359170378       11.9787636038  MEMB      23              0.0000000000
      3629        51  DOPC      H3X           -18.5404725603       21.7415824876       11.4686554249  MEMB      23              0.0000000000
      3630        51  DOPC      H3Y           -18.4099988438       23.2913836484       12.3668513248  MEMB      23              0.0000000000
      3631        51  DOPC      C34           -20.0535988392       23.2473252884       10.9851980693  MEMB      23              0.0000000000
      3632        51  DOPC      H4X           -20.5260606460       24.1024871296       11.5196280155  MEMB      23              0.0000000000
      3633        51  DOPC      H4Y           -20.8615205736       22.5555805276       10.6666144161  MEMB      23              0.0000000000
      3634        51  DOPC      C35           -19.3195424485       23.8012896137        9.7628312009  MEMB      23              0.0000000000
      3635        51  DOPC      H5X           -18.3962223824       24.3200917394       10.1036118301  MEMB      23              0.0000000000
      3636        51  DOPC      H5Y           -19.9642410361       24.5542703278        9.2512373556  MEMB      23              0.0000000000
      3637        51  DOPC      C36           -18.9537725126       22.7241384172        8.7425802595  MEMB      23              0.0000000000
      3638        51  DOPC      H6X           -18.5458631201       21.8191656704        9.2404664099  MEMB      23              0.0000000000
      3639        51  DOPC      H6Y           -19.8697837193       22.4210850990        8.2009789110  MEMB      23              0.0000000000
      3640        51  DOPC      C37           -17.9425217067       23.2361346748        7.7202668278  MEMB      23              0.0000000000
      3641        51  DOPC      H7X           -18.3368549786       24.1853507031        7.2932127061  MEMB      23              0.0000000000
      3642        51  DOPC      H7Y           -16.9833971003       23.4513585432        8.2438628841  MEMB      23              0.0000000000
      3643        51  DOPC      C38           -17.7081848417       22.2195744461        6.6000700704  MEMB      23              0.0000000000
      3644        51  DOPC      H8X           -18.6940241078       21.9011317475        6.1924898104  MEMB      23              0.0000000000
      3645        51  DOPC      H8Y           -17.2337630423       21.3172320746        7.0506133341  MEMB      23              0.0000000000
      3646        51  DOPC      C39           -16.8689991644       22.8169723079        5.5029926731  MEMB      23              0.0000000000
      3647        51  DOPC      H9X           -16.9705222770       23.9062921336        5.3675390720  MEMB      23              0.0000000000
      3648        51  DOPC      C310          -16.0378998575       22.1261305340        4.7062377714  MEMB      23              0.0000000000
      3649        51  DOPC      H10X          -15.4733907911       22.6654846554        3.9289077839  MEMB      23              0.0000000000
      3650        51  DOPC      C311          -15.8008739596       20.6353890416        4.7670801635  MEMB      23              0.0000000000
      3651        51  DOPC      H11X          -16.5130516095       20.1193648400        5.4505576246  MEMB      23              0.0000000000
      3652        51  DOPC      H11Y          -14.7902361750       20.4710342715        5.1965851474  MEMB      23              0.0000000000
      3653        51  DOPC      C312          -15.8851803739       19.8935755970        3.4108813623  MEMB      23              0.0000000000
      3654        51  DOPC      H12X          -15.5579721619       20.5490676183        2.5725489711  MEMB      23              0.0000000000
      3655        51  DOPC      H12Y          -16.9453749072       19.6311947320        3.2102350410  MEMB      23              0.0000000000
      3656        51  DOPC      C313          -15.0367667352       18.6064882735        3.4005800643  MEMB      23              0.0000000000
      3657        51  DOPC      H13X          -14.1036625215       18.7813573630        2.8204669750  MEMB      23              0.0000000000
      3658        51  DOPC      H13Y          -14.7422251122       18.3714184928        4.4471519662  MEMB      23              0.0000000000
      3659        51  DOPC      C314          -15.7501464468       17.3898583648        2.7959345775  MEMB      23              0.0000000000
      3660        51  DOPC      H14X          -15.2764021189       16.4586637316        3.1770589853  MEMB      23              0.0000000000
      3661        51  DOPC      H14Y          -16.8148662237       17.3890748699        3.1180135490  MEMB      23              0.0000000000
      3662        51  DOPC      C315          -15.6467084769       17.4097506273        1.2689547834  MEMB      23              0.0000000000
      3663        51  DOPC      H15X          -14.6093549568       17.1415149566        0.9652179370  MEMB      23              0.0000000000
      3664        51  DOPC      H15Y          -15.8316567068       18.4663566468        0.9628940620  MEMB      23              0.0000000000
      3665        51  DOPC      C316          -16.6607493547       16.5094275564        0.5448047839  MEMB      23              0.0000000000
      3666        51  DOPC      H16X          -16.5350386693       15.4529180750        0.8689893749  MEMB      23              0.0000000000
      3667        51  DOPC      H16Y          -17.6776309795       16.8293088156        0.8553066633  MEMB      23              0.0000000000
      3668        51  DOPC      C317          -16.5517045668       16.5689058733       -0.9898526849  MEMB      23              0.0000000000
      3669        51  DOPC      H17X          -15.8695260750       15.7533931557       -1.3184893674  MEMB      23              0.0000000000
      3670        51  DOPC      H17Y          -17.5417220767       16.3531188994       -1.4514249245  MEMB      23              0.0000000000
      3671        51  DOPC      C318          -16.0145615488       17.8906835024       -1.5416627087  MEMB      23              0.0000000000
      3672        51  DOPC      H18X          -15.0337798150       18.1300821313       -1.0734562812  MEMB      23              0.0000000000
      3673        51  DOPC      H18Y          -15.8656498821       17.8044626913       -2.6375880013  MEMB      23              0.0000000000
      3674        51  DOPC      H18Z          -16.6748094839       18.7524725197       -1.3661789121  MEMB      23              0.0000000000
      3675        52  DOPC      N             -19.6812486153       -8.2092844535       21.2185388492  MEMB      24              0.0000000000
      3676        52  DOPC      C12           -20.2997637278       -7.0585524732       20.4463687967  MEMB      24              0.0000000000
      3677        52  DOPC      H12A          -20.1838774438       -6.1244140376       20.9891073291  MEMB      24              0.0000000000
      3678        52  DOPC      H12B          -21.3619879544       -7.2642782574       20.3676228975  MEMB      24              0.0000000000
      3679        52  DOPC      C13           -18.2426753610       -8.3726733632       20.8264687747  MEMB      24              0.0000000000
      3680        52  DOPC      H13A          -18.1810262578       -8.4320394738       19.7398465048  MEMB      24              0.0000000000
      3681        52  DOPC      H13B          -17.6404043393       -7.5584244729       21.1941578277  MEMB      24              0.0000000000
      3682        52  DOPC      H13C          -17.8574894112       -9.2907181066       21.2627651423  MEMB      24              0.0000000000
      3683        52  DOPC      C14           -20.3568260593       -9.4985383847       20.8219370680  MEMB      24              0.0000000000
      3684        52  DOPC      H14A          -20.0152406393      -10.3414428520       21.4110562687  MEMB      24              0.0000000000
      3685        52  DOPC      H14B          -21.4419472813       -9.4303518699       20.8236010148  MEMB      24              0.0000000000
      3686        52  DOPC      H14C          -20.0692194650       -9.7113880733       19.7833167621  MEMB      24              0.0000000000
      3687        52  DOPC      C15           -19.7025095993       -7.9539242052       22.6910341864  MEMB      24              0.0000000000
      3688        52  DOPC      H15A          -19.3044525459       -8.8063114236       23.2251280978  MEMB      24              0.0000000000
      3689        52  DOPC      H15B          -20.6741501849       -7.7129227909       23.0965321174  MEMB      24              0.0000000000
      3690        52  DOPC      H15C          -19.0490213143       -7.1171585223       22.9422704933  MEMB      24              0.0000000000
      3691        52  DOPC      C11           -19.7806421670       -6.8408028075       19.0092456650  MEMB      24              0.0000000000
      3692        52  DOPC      H11A          -20.4701994048       -6.1211931233       18.4974599895  MEMB      24              0.0000000000
      3693        52  DOPC      H11B          -18.7779365381       -6.3650706680       19.0282817344  MEMB      24              0.0000000000
      3694        52  DOPC      P             -20.3146094937       -8.3556394129       16.9502156677  MEMB      24              0.0000000000
      3695        52  DOPC      O13           -19.5081119497       -7.6765336647       15.9204451147  MEMB      24              0.0000000000
      3696        52  DOPC      O14           -21.7694253489       -8.0802284976       16.9994750279  MEMB      24              0.0000000000
      3697        52  DOPC      O12           -19.6607544943       -8.0940439170       18.3524489814  MEMB      24              0.0000000000
      3698        52  DOPC      O11           -20.0567338825       -9.9027492862       16.8790342007  MEMB      24              0.0000000000
      3699        52  DOPC      C1            -20.9045539243      -10.8926647427       17.4555441033  MEMB      24              0.0000000000
      3700        52  DOPC      HA            -21.9487918839      -10.8002877187       17.0737232812  MEMB      24              0.0000000000
      3701        52  DOPC      HB            -20.9347193816      -10.7819848499       18.5573835063  MEMB      24              0.0000000000
      3702        52  DOPC      C2            -20.3704432242      -12.3261157143       17.1384325919  MEMB      24              0.0000000000
      3703        52  DOPC      HS            -20.6401876779      -12.9978337346       17.9827824133  MEMB      24              0.0000000000
      3704        52  DOPC      O21           -18.9459709312      -12.3335754790       16.9481062524  MEMB      24              0.0000000000
      3705        52  DOPC      C21           -18.1655023262      -11.8874786337       17.9067034459  MEMB      24              0.0000000000
      3706        52  DOPC      O22           -18.3871959539      -11.8971650141       19.1103020802  MEMB      24              0.0000000000
      3707        52  DOPC      C22           -16.8526617967      -11.4158851481       17.2631905348  MEMB      24              0.0000000000
      3708        52  DOPC      H2R           -16.1281750791      -12.2151674859       17.4873660582  MEMB      24              0.0000000000
      3709        52  DOPC      H2S           -16.5248925145      -10.4905415902       17.7743874070  MEMB      24              0.0000000000
      3710        52  DOPC      C3            -21.0475091962      -12.9093118701       15.8463316020  MEMB      24              0.0000000000
      3711        52  DOPC      HX            -22.0865625622      -13.2018597032       16.1312158865  MEMB      24              0.0000000000
      3712        52  DOPC      HY            -20.4954899312      -13.8272116991       15.5306601477  MEMB      24              0.0000000000
      3713        52  DOPC      O31           -21.0886569990      -11.9425505684       14.7723588900  MEMB      24              0.0000000000
      3714        52  DOPC      C31           -21.8571695581      -12.2899237567       13.7397227534  MEMB      24              0.0000000000
      3715        52  DOPC      O32           -22.2971470151      -13.4090694341       13.5544863874  MEMB      24              0.0000000000
      3716        52  DOPC      C32           -22.1631385940      -11.0699823220       12.8553804915  MEMB      24              0.0000000000
      3717        52  DOPC      H2X           -21.4786309578      -11.0837799323       11.9849008600  MEMB      24              0.0000000000
      3718        52  DOPC      H2Y           -23.2035154429      -11.2068364962       12.4966831109  MEMB      24              0.0000000000
      3719        52  DOPC      C23           -16.8727495865      -11.2243322485       15.7151528914  MEMB      24              0.0000000000
      3720        52  DOPC      H3R           -17.4160414251      -12.0457370538       15.2026734769  MEMB      24              0.0000000000
      3721        52  DOPC      H3S           -15.8130270445      -11.2460095015       15.3760141575  MEMB      24              0.0000000000
      3722        52  DOPC      C24           -17.4598261288       -9.9048968286       15.2082788630  MEMB      24              0.0000000000
      3723        52  DOPC      H4R           -17.3255281534       -9.1244250098       15.9921936673  MEMB      24              0.0000000000
      3724        52  DOPC      H4S           -18.5554458041      -10.0246248049       15.0465423822  MEMB      24              0.0000000000
      3725        52  DOPC      C25           -16.8282600651       -9.3854817935       13.9012399784  MEMB      24              0.0000000000
      3726        52  DOPC      H5R           -15.7210835641       -9.4355314254       13.9751888343  MEMB      24              0.0000000000
      3727        52  DOPC      H5S           -17.1167640408       -8.3096826392       13.8168868936  MEMB      24              0.0000000000
      3728        52  DOPC      C26           -17.3191616867      -10.0953095487       12.6260842543  MEMB      24              0.0000000000
      3729        52  DOPC      H6R           -18.4299421162      -10.0403441768       12.6099858118  MEMB      24              0.0000000000
      3730        52  DOPC      H6S           -17.0551292524      -11.1717425739       12.6742194439  MEMB      24              0.0000000000
      3731        52  DOPC      C27           -16.7347429867       -9.4750046757       11.3348978835  MEMB      24              0.0000000000
      3732        52  DOPC      H7R           -15.9805951230      -10.1698492201       10.9016570441  MEMB      24              0.0000000000
      3733        52  DOPC      H7S           -16.1869398335       -8.5498877952       11.6271564791  MEMB      24              0.0000000000
      3734        52  DOPC      C28           -17.7980310110       -9.0489579224       10.2933941300  MEMB      24              0.0000000000
      3735        52  DOPC      H8R           -17.6631342369       -7.9689098917       10.0686282323  MEMB      24              0.0000000000
      3736        52  DOPC      H8S           -18.7903320932       -9.1226008498       10.7842561455  MEMB      24              0.0000000000
      3737        52  DOPC      C29           -17.7576486472       -9.8396553848        9.0102251583  MEMB      24              0.0000000000
      3738        52  DOPC      H9R           -16.9168557294       -9.6013101725        8.3389308857  MEMB      24              0.0000000000
      3739        52  DOPC      C210          -18.7474375183      -10.6054556405        8.5262244729  MEMB      24              0.0000000000
      3740        52  DOPC      H10R          -18.5974235359      -11.1055569342        7.5528721528  MEMB      24              0.0000000000
      3741        52  DOPC      C211          -20.1163973901      -10.8405727012        9.1400571199  MEMB      24              0.0000000000
      3742        52  DOPC      H11R          -20.3528510710      -10.1181743174        9.9414955292  MEMB      24              0.0000000000
      3743        52  DOPC      H11S          -20.2397639717      -11.8432695845        9.5895249289  MEMB      24              0.0000000000
      3744        52  DOPC      C212          -21.0392141490      -10.6515066901        7.9339132492  MEMB      24              0.0000000000
      3745        52  DOPC      H12R          -20.8978626372      -11.4701109016        7.2026353855  MEMB      24              0.0000000000
      3746        52  DOPC      H12S          -20.7182153897       -9.7066190258        7.4352193631  MEMB      24              0.0000000000
      3747        52  DOPC      C213          -22.5370977194      -10.4246023332        8.0800136159  MEMB      24              0.0000000000
      3748        52  DOPC      H13R          -22.8184322342       -9.9410837589        9.0404671889  MEMB      24              0.0000000000
      3749        52  DOPC      H13S          -23.1015569638      -11.3798124140        8.0081841890  MEMB      24              0.0000000000
      3750        52  DOPC      C214          -22.9229922960       -9.5207724048        6.8935237827  MEMB      24              0.0000000000
      3751        52  DOPC      H14R          -22.4689294089       -8.5200434506        6.9902907940  MEMB      24              0.0000000000
      3752        52  DOPC      H14S          -24.0227965757       -9.3863717263        6.9691186528  MEMB      24              0.0000000000
      3753        52  DOPC      C215          -22.5652236230      -10.0876571488        5.4943381568  MEMB      24              0.0000000000
      3754        52  DOPC      H15R          -23.2998395798       -9.6116137384        4.8106560701  MEMB      24              0.0000000000
      3755        52  DOPC      H15S          -22.7332832376      -11.1809843207        5.5431078589  MEMB      24              0.0000000000
      3756        52  DOPC      C216          -21.1966047553       -9.8785282309        4.8074123325  MEMB      24              0.0000000000
      3757        52  DOPC      H16R          -20.3693704698      -10.3277432862        5.3974719496  MEMB      24              0.0000000000
      3758        52  DOPC      H16S          -20.9900936646       -8.7928214094        4.7015524197  MEMB      24              0.0000000000
      3759        52  DOPC      C217          -21.1793505622      -10.5152174235        3.3943854460  MEMB      24              0.0000000000
      3760        52  DOPC      H17R          -21.1497821208      -11.6196443449        3.4836700373  MEMB      24              0.0000000000
      3761        52  DOPC      H17S          -20.2382080772      -10.2236204162        2.8760072335  MEMB      24              0.0000000000
      3762        52  DOPC      C218          -22.3887932551      -10.1632357127        2.5156765766  MEMB      24              0.0000000000
      3763        52  DOPC      H18R          -22.2122577628      -10.4441578141        1.4549001969  MEMB      24              0.0000000000
      3764        52  DOPC      H18S          -22.6143658722       -9.0809120039        2.5805663622  MEMB      24              0.0000000000
      3765        52  DOPC      H18T          -23.3105098786      -10.6615337091        2.8674651639  MEMB      24              0.0000000000
      3766        52  DOPC      C33           -22.0489498179       -9.7200653847       13.6158882410  MEMB      24              0.0000000000
      3767        52  DOPC      H3X           -20.9747208067       -9.5254273794       13.8421003739  MEMB      24              0.0000000000
      3768        52  DOPC      H3Y           -22.5662801064       -9.8184287189       14.5992880012  MEMB      24              0.0000000000
      3769        52  DOPC      C34           -22.6361944563       -8.4882893886       12.8919986954  MEMB      24              0.0000000000
      3770        52  DOPC      H4X           -22.5875242722       -7.6365605002       13.6089328624  MEMB      24              0.0000000000
      3771        52  DOPC      H4Y           -23.7080499451       -8.6741134030       12.6630291170  MEMB      24              0.0000000000
      3772        52  DOPC      C35           -21.8738146212       -8.1227532153       11.6069463088  MEMB      24              0.0000000000
      3773        52  DOPC      H5X           -21.9109867164       -9.0085440920       10.9383212490  MEMB      24              0.0000000000
      3774        52  DOPC      H5Y           -20.8084800581       -7.9397508772       11.8744923682  MEMB      24              0.0000000000
      3775        52  DOPC      C36           -22.4029074125       -6.9101771782       10.8125564649  MEMB      24              0.0000000000
      3776        52  DOPC      H6X           -23.5091245070       -6.8391902857       10.9347771810  MEMB      24              0.0000000000
      3777        52  DOPC      H6Y           -21.9593665270       -5.9733258835       11.2191372690  MEMB      24              0.0000000000
      3778        52  DOPC      C37           -22.1026552814       -7.0129028633        9.2975334600  MEMB      24              0.0000000000
      3779        52  DOPC      H7X           -22.7092154177       -7.8674648179        8.9334199832  MEMB      24              0.0000000000
      3780        52  DOPC      H7Y           -22.5044910058       -6.1082941005        8.8048729551  MEMB      24              0.0000000000
      3781        52  DOPC      C38           -20.5933630355       -7.2358939252        8.9597334468  MEMB      24              0.0000000000
      3782        52  DOPC      H8X           -20.3620610800       -8.2195223395        9.4063764830  MEMB      24              0.0000000000
      3783        52  DOPC      H8Y           -20.0079238620       -6.5151046076        9.5660418401  MEMB      24              0.0000000000
      3784        52  DOPC      C39           -19.9791035360       -7.2671978313        7.5678728990  MEMB      24              0.0000000000
      3785        52  DOPC      H9X           -19.0345315245       -7.8353595310        7.5340062515  MEMB      24              0.0000000000
      3786        52  DOPC      C310          -20.4147997017       -6.7641814748        6.3981596219  MEMB      24              0.0000000000
      3787        52  DOPC      H10X          -19.8069451093       -6.9288959335        5.4933813469  MEMB      24              0.0000000000
      3788        52  DOPC      C311          -21.6856122714       -6.0010918351        6.1579365059  MEMB      24              0.0000000000
      3789        52  DOPC      H11X          -21.9287282936       -5.3697411133        7.0361747251  MEMB      24              0.0000000000
      3790        52  DOPC      H11Y          -22.5182576572       -6.7182628778        6.0057765715  MEMB      24              0.0000000000
      3791        52  DOPC      C312          -21.6622223564       -5.0709862427        4.9306606666  MEMB      24              0.0000000000
      3792        52  DOPC      H12X          -20.8601299737       -4.3127939989        5.0487706385  MEMB      24              0.0000000000
      3793        52  DOPC      H12Y          -22.6384361441       -4.5444418277        4.9172986630  MEMB      24              0.0000000000
      3794        52  DOPC      C313          -21.4972657908       -5.8306283542        3.6076317315  MEMB      24              0.0000000000
      3795        52  DOPC      H13X          -20.4231376882       -6.0846655270        3.5000195677  MEMB      24              0.0000000000
      3796        52  DOPC      H13Y          -22.0587974673       -6.7901787055        3.6980117579  MEMB      24              0.0000000000
      3797        52  DOPC      C314          -22.0173319787       -5.1129910227        2.3438491224  MEMB      24              0.0000000000
      3798        52  DOPC      H14X          -22.9318209569       -5.6422149331        1.9991675477  MEMB      24              0.0000000000
      3799        52  DOPC      H14Y          -22.3265547418       -4.0709078151        2.5837664246  MEMB      24              0.0000000000
      3800        52  DOPC      C315          -21.0516441206       -5.0877602660        1.1432412101  MEMB      24              0.0000000000
      3801        52  DOPC      H15X          -20.3532586824       -4.2382106208        1.3014200733  MEMB      24              0.0000000000
      3802        52  DOPC      H15Y          -21.6386750736       -4.8700221564        0.2208142362  MEMB      24              0.0000000000
      3803        52  DOPC      C316          -20.2227433105       -6.3634543555        0.8943380975  MEMB      24              0.0000000000
      3804        52  DOPC      H16X          -19.7162391863       -6.2915113054       -0.0931835993  MEMB      24              0.0000000000
      3805        52  DOPC      H16Y          -19.4340118528       -6.4227501946        1.6757861599  MEMB      24              0.0000000000
      3806        52  DOPC      C317          -20.9831045338       -7.6884446319        0.9476742975  MEMB      24              0.0000000000
      3807        52  DOPC      H17X          -20.3192144946       -8.5163310422        0.6154269747  MEMB      24              0.0000000000
      3808        52  DOPC      H17Y          -21.1688739649       -7.8768341254        2.0232273444  MEMB      24              0.0000000000
      3809        52  DOPC      C318          -22.3009299377       -7.7257860132        0.1698486139  MEMB      24              0.0000000000
      3810        52  DOPC      H18X          -22.4542026426       -8.7128599703       -0.3119236713  MEMB      24              0.0000000000
      3811        52  DOPC      H18Y          -23.1489588406       -7.5658749146        0.8636047340  MEMB      24              0.0000000000
      3812        52  DOPC      H18Z          -22.3292705719       -6.9364912599       -0.6090042570  MEMB      24              0.0000000000
      3813        53  DOPC      N             -12.8033189716       22.6544421039       17.7394934893  MEMB      25              0.0000000000
      3814        53  DOPC      C12           -11.6593063791       23.6764163378       17.6747459214  MEMB      25              0.0000000000
      3815        53  DOPC      H12A          -11.8482400214       24.4300599645       16.9147215700  MEMB      25              0.0000000000
      3816        53  DOPC      H12B          -10.7399923434       23.1631549054       17.4029291850  MEMB      25              0.0000000000
      3817        53  DOPC      C13           -12.8382330784       21.8340788181       16.4835994613  MEMB      25              0.0000000000
      3818        53  DOPC      H13A          -13.6633095916       21.1368261171       16.5003382055  MEMB      25              0.0000000000
      3819        53  DOPC      H13B          -12.9048895992       22.4523453005       15.5967520933  MEMB      25              0.0000000000
      3820        53  DOPC      H13C          -11.9216766169       21.2485805055       16.3971050739  MEMB      25              0.0000000000
      3821        53  DOPC      C14           -14.1069094012       23.3530660349       18.0094867037  MEMB      25              0.0000000000
      3822        53  DOPC      H14A          -14.0065363356       23.9687683303       18.9087657347  MEMB      25              0.0000000000
      3823        53  DOPC      H14B          -14.3923890996       24.0273039752       17.2119753834  MEMB      25              0.0000000000
      3824        53  DOPC      H14C          -14.9098455896       22.6520699439       18.2016044552  MEMB      25              0.0000000000
      3825        53  DOPC      C15           -12.5470661149       21.7277088153       18.8973297178  MEMB      25              0.0000000000
      3826        53  DOPC      H15A          -13.3206767706       20.9859602034       19.0193077717  MEMB      25              0.0000000000
      3827        53  DOPC      H15B          -12.4332434917       22.3088782062       19.8179820302  MEMB      25              0.0000000000
      3828        53  DOPC      H15C          -11.5918387114       21.2223073277       18.7966306674  MEMB      25              0.0000000000
      3829        53  DOPC      C11           -11.2925362036       24.4345125696       18.9692647561  MEMB      25              0.0000000000
      3830        53  DOPC      H11A          -10.6995889909       25.3354013694       18.6739149574  MEMB      25              0.0000000000
      3831        53  DOPC      H11B          -12.2182003933       24.7817841078       19.4869187068  MEMB      25              0.0000000000
      3832        53  DOPC      P             -10.0414253541       24.3133254838       21.1805102724  MEMB      25              0.0000000000
      3833        53  DOPC      O13           -11.1207426497       24.0331673417       22.1534344148  MEMB      25              0.0000000000
      3834        53  DOPC      O14            -9.6902623216       25.7398982143       20.9436596858  MEMB      25              0.0000000000
      3835        53  DOPC      O12           -10.4930430227       23.6049026474       19.8096291985  MEMB      25              0.0000000000
      3836        53  DOPC      O11            -8.7336975991       23.5699749473       21.5983871695  MEMB      25              0.0000000000
      3837        53  DOPC      C1             -8.0331803568       22.6152193891       20.8335130954  MEMB      25              0.0000000000
      3838        53  DOPC      HA             -8.7209445961       21.8894611089       20.3467229628  MEMB      25              0.0000000000
      3839        53  DOPC      HB             -7.4493585654       22.0563968524       21.5717957677  MEMB      25              0.0000000000
      3840        53  DOPC      C2             -7.0222291628       23.1882161634       19.7896072292  MEMB      25              0.0000000000
      3841        53  DOPC      HS             -6.2967098285       23.8502182082       20.3167247287  MEMB      25              0.0000000000
      3842        53  DOPC      O21            -7.7535521123       23.9396891627       18.8124359139  MEMB      25              0.0000000000
      3843        53  DOPC      C21            -7.0309745906       24.4653932450       17.8621437508  MEMB      25              0.0000000000
      3844        53  DOPC      O22            -5.8233554540       24.6531387449       17.8723007335  MEMB      25              0.0000000000
      3845        53  DOPC      C22            -7.9390602412       24.6072218828       16.6242107123  MEMB      25              0.0000000000
      3846        53  DOPC      H2R            -8.8071778840       25.2169201275       16.8965958959  MEMB      25              0.0000000000
      3847        53  DOPC      H2S            -8.3579680071       23.6249484040       16.3699951245  MEMB      25              0.0000000000
      3848        53  DOPC      C3             -6.2599391315       22.0172144423       19.0894340515  MEMB      25              0.0000000000
      3849        53  DOPC      HX             -5.7012347353       21.4438412892       19.8494043348  MEMB      25              0.0000000000
      3850        53  DOPC      HY             -5.4899247802       22.3720342402       18.3703560877  MEMB      25              0.0000000000
      3851        53  DOPC      O31            -7.2382820567       21.1523806234       18.4917858055  MEMB      25              0.0000000000
      3852        53  DOPC      C31            -7.5396129049       21.3887699119       17.2458790200  MEMB      25              0.0000000000
      3853        53  DOPC      O32            -6.7534367137       21.8019481465       16.4065480779  MEMB      25              0.0000000000
      3854        53  DOPC      C32            -9.0616425953       21.1913277292       17.0791272634  MEMB      25              0.0000000000
      3855        53  DOPC      H2X            -9.2827040621       20.1999249922       17.5236126901  MEMB      25              0.0000000000
      3856        53  DOPC      H2Y            -9.5442744050       21.9433341659       17.7346587190  MEMB      25              0.0000000000
      3857        53  DOPC      C23            -7.1666926827       25.1147633712       15.3922758629  MEMB      25              0.0000000000
      3858        53  DOPC      H3R            -6.3619079582       24.3921800605       15.1219464773  MEMB      25              0.0000000000
      3859        53  DOPC      H3S            -6.6753544780       26.0599355659       15.7179192838  MEMB      25              0.0000000000
      3860        53  DOPC      C24            -8.0074154383       25.4345033234       14.1410287862  MEMB      25              0.0000000000
      3861        53  DOPC      H4R            -7.3164483835       25.9306237454       13.4180081402  MEMB      25              0.0000000000
      3862        53  DOPC      H4S            -8.8122534728       26.1508696590       14.4021188831  MEMB      25              0.0000000000
      3863        53  DOPC      C25            -8.5879067389       24.2388700598       13.4017580195  MEMB      25              0.0000000000
      3864        53  DOPC      H5R            -9.2253036331       23.6701019098       14.1017775989  MEMB      25              0.0000000000
      3865        53  DOPC      H5S            -7.7167191730       23.6011285465       13.1169886579  MEMB      25              0.0000000000
      3866        53  DOPC      C26            -9.3534026689       24.5841840924       12.1018372365  MEMB      25              0.0000000000
      3867        53  DOPC      H6R            -9.4221330666       23.6678910389       11.4747333396  MEMB      25              0.0000000000
      3868        53  DOPC      H6S            -8.7481575881       25.3184489133       11.5290696109  MEMB      25              0.0000000000
      3869        53  DOPC      C27           -10.7790766351       25.1425163739       12.2701341430  MEMB      25              0.0000000000
      3870        53  DOPC      H7R           -11.1478239840       25.4833198616       11.2791865031  MEMB      25              0.0000000000
      3871        53  DOPC      H7S           -10.7256247846       26.0474257421       12.9170741440  MEMB      25              0.0000000000
      3872        53  DOPC      C28           -11.8141801740       24.1731903464       12.9005369269  MEMB      25              0.0000000000
      3873        53  DOPC      H8R           -12.7716834666       24.7207276842       12.9670822458  MEMB      25              0.0000000000
      3874        53  DOPC      H8S           -11.4727888873       24.0448616815       13.9510640827  MEMB      25              0.0000000000
      3875        53  DOPC      C29           -12.1192782209       22.7939133262       12.3566102825  MEMB      25              0.0000000000
      3876        53  DOPC      H9R           -12.2485048102       22.0528478161       13.1599169776  MEMB      25              0.0000000000
      3877        53  DOPC      C210          -12.2254281554       22.3229975860       11.1012678993  MEMB      25              0.0000000000
      3878        53  DOPC      H10R          -12.4142464022       21.2446563704       10.9718278461  MEMB      25              0.0000000000
      3879        53  DOPC      C211          -12.0756695545       23.0427251351        9.7916203034  MEMB      25              0.0000000000
      3880        53  DOPC      H11R          -11.1938089987       22.6352209520        9.2535321207  MEMB      25              0.0000000000
      3881        53  DOPC      H11S          -11.9041891717       24.1309581076        9.9112104227  MEMB      25              0.0000000000
      3882        53  DOPC      C212          -13.3366608965       22.8352908474        8.9345052743  MEMB      25              0.0000000000
      3883        53  DOPC      H12R          -14.1728542084       23.4385148639        9.3533344298  MEMB      25              0.0000000000
      3884        53  DOPC      H12S          -13.6618716033       21.7682959917        8.9581263669  MEMB      25              0.0000000000
      3885        53  DOPC      C213          -13.1079200813       23.2036649768        7.4662076378  MEMB      25              0.0000000000
      3886        53  DOPC      H13R          -12.6421916254       24.2084919096        7.3796956080  MEMB      25              0.0000000000
      3887        53  DOPC      H13S          -14.0988010724       23.2403962798        6.9558735011  MEMB      25              0.0000000000
      3888        53  DOPC      C214          -12.2393612156       22.1530524450        6.7680468219  MEMB      25              0.0000000000
      3889        53  DOPC      H14R          -12.6619752979       21.1526538115        7.0226084100  MEMB      25              0.0000000000
      3890        53  DOPC      H14S          -11.1933040695       22.1722641270        7.1445582089  MEMB      25              0.0000000000
      3891        53  DOPC      C215          -12.2428362993       22.2945102495        5.2473862709  MEMB      25              0.0000000000
      3892        53  DOPC      H15R          -11.6177764630       23.1559122255        4.9271455029  MEMB      25              0.0000000000
      3893        53  DOPC      H15S          -13.2837946434       22.4957289997        4.9145664577  MEMB      25              0.0000000000
      3894        53  DOPC      C216          -11.7642009999       21.0047116141        4.5743613660  MEMB      25              0.0000000000
      3895        53  DOPC      H16R          -12.0616278983       20.1347248264        5.2063875474  MEMB      25              0.0000000000
      3896        53  DOPC      H16S          -10.6618828907       21.0126155144        4.5479997751  MEMB      25              0.0000000000
      3897        53  DOPC      C217          -12.3842692302       20.7893392784        3.1883659812  MEMB      25              0.0000000000
      3898        53  DOPC      H17R          -13.4780808675       20.7749099923        3.3655395574  MEMB      25              0.0000000000
      3899        53  DOPC      H17S          -12.0944336490       19.7863453935        2.8009943525  MEMB      25              0.0000000000
      3900        53  DOPC      C218          -12.1235002664       21.8635771923        2.1291821281  MEMB      25              0.0000000000
      3901        53  DOPC      H18R          -11.8853946122       22.8377534728        2.6061327084  MEMB      25              0.0000000000
      3902        53  DOPC      H18S          -13.0217458583       21.9900158681        1.4876761028  MEMB      25              0.0000000000
      3903        53  DOPC      H18T          -11.2825841098       21.5726555842        1.4665284762  MEMB      25              0.0000000000
      3904        53  DOPC      C33            -9.6700286864       21.2732643755       15.6385827567  MEMB      25              0.0000000000
      3905        53  DOPC      H3X           -10.0995189458       22.2836215431       15.4800822225  MEMB      25              0.0000000000
      3906        53  DOPC      H3Y           -10.5103933650       20.5444645829       15.5794357664  MEMB      25              0.0000000000
      3907        53  DOPC      C34            -8.7378889046       20.9690762838       14.4612358731  MEMB      25              0.0000000000
      3908        53  DOPC      H4X            -8.3146450653       19.9523194432       14.5077055716  MEMB      25              0.0000000000
      3909        53  DOPC      H4Y            -7.8994164498       21.6971097592       14.4415273849  MEMB      25              0.0000000000
      3910        53  DOPC      C35            -9.3941159829       21.0448897484       13.0945168276  MEMB      25              0.0000000000
      3911        53  DOPC      H5X            -9.8433520590       22.0424482832       12.9672543550  MEMB      25              0.0000000000
      3912        53  DOPC      H5Y           -10.1993107460       20.2903175247       12.9843437199  MEMB      25              0.0000000000
      3913        53  DOPC      C36            -8.3181215523       20.9021957518       12.0268711991  MEMB      25              0.0000000000
      3914        53  DOPC      H6X            -8.0383384008       21.9313494669       11.7133467940  MEMB      25              0.0000000000
      3915        53  DOPC      H6Y            -7.3927900591       20.4635192586       12.4782352853  MEMB      25              0.0000000000
      3916        53  DOPC      C37            -8.7480617540       20.0204994969       10.8470119791  MEMB      25              0.0000000000
      3917        53  DOPC      H7X            -8.0845773616       19.1341450554       10.8915003047  MEMB      25              0.0000000000
      3918        53  DOPC      H7Y            -9.8016844729       19.6814722840       10.9684915106  MEMB      25              0.0000000000
      3919        53  DOPC      C38            -8.5496521203       20.6133602222        9.4561027564  MEMB      25              0.0000000000
      3920        53  DOPC      H8X            -9.3386513088       21.3836593502        9.2881995259  MEMB      25              0.0000000000
      3921        53  DOPC      H8Y            -8.6509563442       19.8531481998        8.6536550273  MEMB      25              0.0000000000
      3922        53  DOPC      C39            -7.2241982708       21.2989188541        9.4510976906  MEMB      25              0.0000000000
      3923        53  DOPC      H9X            -7.3638533049       22.3656990188        9.6149087276  MEMB      25              0.0000000000
      3924        53  DOPC      C310           -5.9459896892       20.9447472231        9.3592184661  MEMB      25              0.0000000000
      3925        53  DOPC      H10X           -5.2753860239       21.7997877734        9.3528507331  MEMB      25              0.0000000000
      3926        53  DOPC      C311           -5.1446150554       19.6951083378        9.2060608352  MEMB      25              0.0000000000
      3927        53  DOPC      H11X           -5.6567221023       18.9874976126        8.5387384386  MEMB      25              0.0000000000
      3928        53  DOPC      H11Y           -4.9130302686       19.2108109858       10.1858336309  MEMB      25              0.0000000000
      3929        53  DOPC      C312           -3.8215821468       20.1852344738        8.5685491047  MEMB      25              0.0000000000
      3930        53  DOPC      H12X           -3.1679287991       19.3098278660        8.3804151213  MEMB      25              0.0000000000
      3931        53  DOPC      H12Y           -3.3028327664       20.8106824866        9.3388110539  MEMB      25              0.0000000000
      3932        53  DOPC      C313           -4.0405840098       21.0201690213        7.2735504112  MEMB      25              0.0000000000
      3933        53  DOPC      H13X           -5.0082532204       20.7244499676        6.7992309951  MEMB      25              0.0000000000
      3934        53  DOPC      H13Y           -4.1279492851       22.0927434131        7.5661583414  MEMB      25              0.0000000000
      3935        53  DOPC      C314           -2.9932959733       20.8957703139        6.1564016664  MEMB      25              0.0000000000
      3936        53  DOPC      H14X           -2.0324110469       21.3430139054        6.4892805858  MEMB      25              0.0000000000
      3937        53  DOPC      H14Y           -2.8204058292       19.8145597324        5.9550838476  MEMB      25              0.0000000000
      3938        53  DOPC      C315           -3.4854213720       21.5364914232        4.8327801926  MEMB      25              0.0000000000
      3939        53  DOPC      H15X           -4.4163694188       21.0110291066        4.5269276927  MEMB      25              0.0000000000
      3940        53  DOPC      H15Y           -2.7308690169       21.3739601163        4.0329436901  MEMB      25              0.0000000000
      3941        53  DOPC      C316           -3.8195469965       23.0320529491        4.9306005965  MEMB      25              0.0000000000
      3942        53  DOPC      H16X           -4.2689357817       23.2736678486        5.9178132820  MEMB      25              0.0000000000
      3943        53  DOPC      H16Y           -2.8925202402       23.6128711514        4.8227027923  MEMB      25              0.0000000000
      3944        53  DOPC      C317           -4.7561516127       23.6167974928        3.8705814228  MEMB      25              0.0000000000
      3945        53  DOPC      H17X           -4.1605090976       23.8259653090        2.9507621473  MEMB      25              0.0000000000
      3946        53  DOPC      H17Y           -5.5683319757       22.9083787360        3.6131774927  MEMB      25              0.0000000000
      3947        53  DOPC      C318           -5.3855617288       24.8961817072        4.4188928468  MEMB      25              0.0000000000
      3948        53  DOPC      H18X           -5.5264512746       25.6750602936        3.6417941327  MEMB      25              0.0000000000
      3949        53  DOPC      H18Y           -6.3903944920       24.6995014020        4.8386943759  MEMB      25              0.0000000000
      3950        53  DOPC      H18Z           -4.7017078544       25.3049502119        5.2076996601  MEMB      25              0.0000000000
      3951        54  DOPC      N              -0.8505074700       24.5770027453       18.4835494940  MEMB      26              0.0000000000
      3952        54  DOPC      C12            -1.8461182660       24.2910930919       19.6149649035  MEMB      26              0.0000000000
      3953        54  DOPC      H12A           -1.4396175569       23.5368026285       20.2666514125  MEMB      26              0.0000000000
      3954        54  DOPC      H12B           -2.7427107333       23.8740176915       19.1576263579  MEMB      26              0.0000000000
      3955        54  DOPC      C13            -1.6556107288       25.1572117107       17.3696444120  MEMB      26              0.0000000000
      3956        54  DOPC      H13A           -2.3905659695       24.4388848814       17.0318272075  MEMB      26              0.0000000000
      3957        54  DOPC      H13B           -2.2319546154       26.0073850280       17.7502425345  MEMB      26              0.0000000000
      3958        54  DOPC      H13C           -1.0348540861       25.4578187589       16.5391673816  MEMB      26              0.0000000000
      3959        54  DOPC      C14            -0.2048751731       23.3210733051       17.9868247991  MEMB      26              0.0000000000
      3960        54  DOPC      H14A           -0.9735172783       22.6122132852       17.6895215997  MEMB      26              0.0000000000
      3961        54  DOPC      H14B            0.4063476133       23.5308754907       17.1194542507  MEMB      26              0.0000000000
      3962        54  DOPC      H14C            0.3951319074       22.8493258934       18.7579771392  MEMB      26              0.0000000000
      3963        54  DOPC      C15             0.1879783561       25.5632563579       18.8905756612  MEMB      26              0.0000000000
      3964        54  DOPC      H15A            0.7409424693       25.2066186848       19.7544420458  MEMB      26              0.0000000000
      3965        54  DOPC      H15B           -0.3087634705       26.4848855168       19.2007197617  MEMB      26              0.0000000000
      3966        54  DOPC      H15C            0.8642051583       25.7924784704       18.0783255314  MEMB      26              0.0000000000
      3967        54  DOPC      C11            -2.3818958646       25.4713995755       20.4806251188  MEMB      26              0.0000000000
      3968        54  DOPC      H11A           -2.9403652832       25.0382108721       21.3435810108  MEMB      26              0.0000000000
      3969        54  DOPC      H11B           -1.5370153660       26.0562518846       20.9034509492  MEMB      26              0.0000000000
      3970        54  DOPC      P              -4.3820144912       27.1951374133       20.3776638218  MEMB      26              0.0000000000
      3971        54  DOPC      O13            -3.7505729279       28.1264991736       21.3495594255  MEMB      26              0.0000000000
      3972        54  DOPC      O14            -5.4961941890       26.3726205831       20.8807092658  MEMB      26              0.0000000000
      3973        54  DOPC      O12            -3.2257473673       26.3136228239       19.7047258234  MEMB      26              0.0000000000
      3974        54  DOPC      O11            -4.8167859584       28.0662075872       19.1239292743  MEMB      26              0.0000000000
      3975        54  DOPC      C1             -3.7825550180       28.8967658515       18.5822164815  MEMB      26              0.0000000000
      3976        54  DOPC      HA             -2.7964639760       28.3706022148       18.5379870721  MEMB      26              0.0000000000
      3977        54  DOPC      HB             -3.6442600088       29.8089433699       19.2078405969  MEMB      26              0.0000000000
      3978        54  DOPC      C2             -4.0782912934       29.3343265856       17.1307830834  MEMB      26              0.0000000000
      3979        54  DOPC      HS             -5.0421840622       29.8869215395       17.1128650536  MEMB      26              0.0000000000
      3980        54  DOPC      O21            -4.1442960947       28.1538162459       16.3067158193  MEMB      26              0.0000000000
      3981        54  DOPC      C21            -4.3464620286       28.3740604716       15.0294745855  MEMB      26              0.0000000000
      3982        54  DOPC      O22            -4.5485613897       29.4621860385       14.5174453592  MEMB      26              0.0000000000
      3983        54  DOPC      C22            -4.2507943681       27.0408350198       14.3072571005  MEMB      26              0.0000000000
      3984        54  DOPC      H2R            -4.9505021217       26.3229160201       14.7618690978  MEMB      26              0.0000000000
      3985        54  DOPC      H2S            -3.2285280184       26.6276568580       14.4201790670  MEMB      26              0.0000000000
      3986        54  DOPC      C3             -2.9272075275       30.2742440268       16.7180113085  MEMB      26              0.0000000000
      3987        54  DOPC      HX             -2.8982107524       31.0649657730       17.4964379011  MEMB      26              0.0000000000
      3988        54  DOPC      HY             -3.1327948347       30.7957252673       15.7563041801  MEMB      26              0.0000000000
      3989        54  DOPC      O31            -1.7177230389       29.4779936099       16.7531230602  MEMB      26              0.0000000000
      3990        54  DOPC      C31            -1.1063849838       29.3089377559       15.5934876614  MEMB      26              0.0000000000
      3991        54  DOPC      O32            -1.1694161604       30.0880674732       14.6623754463  MEMB      26              0.0000000000
      3992        54  DOPC      C32            -0.3193413728       27.9976640458       15.6508060452  MEMB      26              0.0000000000
      3993        54  DOPC      H2X             0.3955509507       28.0708097149       16.4989950785  MEMB      26              0.0000000000
      3994        54  DOPC      H2Y            -1.0582763322       27.2065696167       15.8672013495  MEMB      26              0.0000000000
      3995        54  DOPC      C23            -4.6216517174       27.2993703130       12.8563425153  MEMB      26              0.0000000000
      3996        54  DOPC      H3R            -5.5314325790       27.9193359438       12.7242555106  MEMB      26              0.0000000000
      3997        54  DOPC      H3S            -4.8176203343       26.3595823031       12.3364352207  MEMB      26              0.0000000000
      3998        54  DOPC      C24            -3.4715937854       27.9538921843       12.1559045108  MEMB      26              0.0000000000
      3999        54  DOPC      H4R            -2.7552863699       27.1385480170       11.9823702781  MEMB      26              0.0000000000
      4000        54  DOPC      H4S            -2.9852531573       28.7328893340       12.7841137841  MEMB      26              0.0000000000
      4001        54  DOPC      C25            -3.9024672381       28.6136124879       10.8760212381  MEMB      26              0.0000000000
      4002        54  DOPC      H5R            -4.5804792867       29.4617430492       11.1340487697  MEMB      26              0.0000000000
      4003        54  DOPC      H5S            -4.4846576888       27.8921636690       10.2636987962  MEMB      26              0.0000000000
      4004        54  DOPC      C26            -2.6718456560       29.1215437330       10.1358670112  MEMB      26              0.0000000000
      4005        54  DOPC      H6R            -2.1331497989       28.2850812438        9.6523957868  MEMB      26              0.0000000000
      4006        54  DOPC      H6S            -1.9480406851       29.5493174857       10.8532761891  MEMB      26              0.0000000000
      4007        54  DOPC      C27            -3.0535023133       30.1487539827        9.0796318716  MEMB      26              0.0000000000
      4008        54  DOPC      H7R            -2.1316080843       30.4629499967        8.5423137217  MEMB      26              0.0000000000
      4009        54  DOPC      H7S            -3.4745446426       31.0233421683        9.6259859328  MEMB      26              0.0000000000
      4010        54  DOPC      C28            -4.1058474780       29.6068775828        8.1068849328  MEMB      26              0.0000000000
      4011        54  DOPC      H8R            -4.2909776308       30.3481837552        7.2980386962  MEMB      26              0.0000000000
      4012        54  DOPC      H8S            -5.0540787271       29.5083321353        8.6747924256  MEMB      26              0.0000000000
      4013        54  DOPC      C29            -3.6250827307       28.2618839963        7.6168548768  MEMB      26              0.0000000000
      4014        54  DOPC      H9R            -3.7681257765       27.4259900675        8.3197410539  MEMB      26              0.0000000000
      4015        54  DOPC      C210           -3.0231197308       28.0140493496        6.4549906075  MEMB      26              0.0000000000
      4016        54  DOPC      H10R           -2.6751765651       26.9924337863        6.2332554716  MEMB      26              0.0000000000
      4017        54  DOPC      C211           -2.7336710361       29.0580472369        5.4197226956  MEMB      26              0.0000000000
      4018        54  DOPC      H11R           -1.6999403554       29.0238337757        5.0301102933  MEMB      26              0.0000000000
      4019        54  DOPC      H11S           -2.9456426265       30.0898581018        5.7538614165  MEMB      26              0.0000000000
      4020        54  DOPC      C212           -3.6662871599       28.8135028952        4.2688692200  MEMB      26              0.0000000000
      4021        54  DOPC      H12R           -3.5453482040       29.6435460376        3.5356033692  MEMB      26              0.0000000000
      4022        54  DOPC      H12S           -4.7316156448       28.7802113517        4.6012747558  MEMB      26              0.0000000000
      4023        54  DOPC      C213           -3.4078788936       27.5038848242        3.5730782821  MEMB      26              0.0000000000
      4024        54  DOPC      H13R           -3.8551861224       26.7241126488        4.1884059824  MEMB      26              0.0000000000
      4025        54  DOPC      H13S           -2.3417191454       27.2146255431        3.4914526527  MEMB      26              0.0000000000
      4026        54  DOPC      C214           -4.1879850734       27.6205781883        2.2926034616  MEMB      26              0.0000000000
      4027        54  DOPC      H14R           -4.0186945948       28.6339151521        1.8595073852  MEMB      26              0.0000000000
      4028        54  DOPC      H14S           -5.2678154497       27.5693963169        2.5426408144  MEMB      26              0.0000000000
      4029        54  DOPC      C215           -3.7860085637       26.6253074972        1.2481072172  MEMB      26              0.0000000000
      4030        54  DOPC      H15R           -4.6027913072       25.8839453872        1.1141113547  MEMB      26              0.0000000000
      4031        54  DOPC      H15S           -2.8777805397       26.0630254500        1.5549168780  MEMB      26              0.0000000000
      4032        54  DOPC      C216           -3.4990234282       27.3940260039       -0.0350258616  MEMB      26              0.0000000000
      4033        54  DOPC      H16R           -2.5758560849       27.9952859859        0.0278806765  MEMB      26              0.0000000000
      4034        54  DOPC      H16S           -4.3193143515       28.1140037277       -0.2294615801  MEMB      26              0.0000000000
      4035        54  DOPC      C217           -3.4895700773       26.4217407326       -1.1726339956  MEMB      26              0.0000000000
      4036        54  DOPC      H17R           -4.5500636928       26.1907905735       -1.1742312276  MEMB      26              0.0000000000
      4037        54  DOPC      H17S           -2.9162722014       25.4992169656       -0.9311910566  MEMB      26              0.0000000000
      4038        54  DOPC      C218           -3.1407788073       26.9671444630       -2.5349823717  MEMB      26              0.0000000000
      4039        54  DOPC      H18R           -2.6032105102       27.9129850161       -2.4017886326  MEMB      26              0.0000000000
      4040        54  DOPC      H18S           -4.0497517713       27.1639341984       -3.1410171513  MEMB      26              0.0000000000
      4041        54  DOPC      H18T           -2.4877979350       26.2605731008       -3.0922300016  MEMB      26              0.0000000000
      4042        54  DOPC      C33             0.4529629284       27.6166652080       14.3667207767  MEMB      26              0.0000000000
      4043        54  DOPC      H3X             1.0206085617       26.6776441261       14.5619030097  MEMB      26              0.0000000000
      4044        54  DOPC      H3Y             1.1887005939       28.4133390674       14.1124798013  MEMB      26              0.0000000000
      4045        54  DOPC      C34            -0.4357787658       27.3255978265       13.1549912324  MEMB      26              0.0000000000
      4046        54  DOPC      H4X            -1.0451359730       28.2282829139       12.9452741294  MEMB      26              0.0000000000
      4047        54  DOPC      H4Y            -1.0997708949       26.4580837940       13.3563606868  MEMB      26              0.0000000000
      4048        54  DOPC      C35             0.3874081221       27.0434404967       11.8984547853  MEMB      26              0.0000000000
      4049        54  DOPC      H5X             1.1475307044       26.2757442930       12.1466016422  MEMB      26              0.0000000000
      4050        54  DOPC      H5Y             0.9088455437       27.9961830811       11.6470307386  MEMB      26              0.0000000000
      4051        54  DOPC      C36            -0.3761489500       26.5473550162       10.6627608636  MEMB      26              0.0000000000
      4052        54  DOPC      H6X            -1.4401921612       26.7868746869       10.7191269393  MEMB      26              0.0000000000
      4053        54  DOPC      H6Y            -0.0119711551       27.0806341386        9.7624967345  MEMB      26              0.0000000000
      4054        54  DOPC      C37            -0.2834178545       25.0364823635       10.4406660847  MEMB      26              0.0000000000
      4055        54  DOPC      H7X             0.7529604221       24.6950440661       10.6222646704  MEMB      26              0.0000000000
      4056        54  DOPC      H7Y            -0.8958745809       24.5824994422       11.2438024389  MEMB      26              0.0000000000
      4057        54  DOPC      C38            -0.8059907491       24.5961564023        9.0495584020  MEMB      26              0.0000000000
      4058        54  DOPC      H8X            -1.2958743559       25.4644963536        8.5554676197  MEMB      26              0.0000000000
      4059        54  DOPC      H8Y            -1.6135599949       23.8533511289        9.2206111795  MEMB      26              0.0000000000
      4060        54  DOPC      C39             0.2648203222       23.9705373286        8.1812259965  MEMB      26              0.0000000000
      4061        54  DOPC      H9X             1.0269181157       23.4283056386        8.7604803287  MEMB      26              0.0000000000
      4062        54  DOPC      C310            0.3978498794       23.9892699951        6.8355391205  MEMB      26              0.0000000000
      4063        54  DOPC      H10X            1.2469973452       23.4477058588        6.3913919949  MEMB      26              0.0000000000
      4064        54  DOPC      C311           -0.5044954897       24.6516953771        5.8214420883  MEMB      26              0.0000000000
      4065        54  DOPC      H11X           -0.8382302000       25.6470990784        6.1866196989  MEMB      26              0.0000000000
      4066        54  DOPC      H11Y           -1.4042442289       24.0301918437        5.8043071367  MEMB      26              0.0000000000
      4067        54  DOPC      C312            0.0266870253       24.8282722169        4.3515328457  MEMB      26              0.0000000000
      4068        54  DOPC      H12X           -0.7799928260       25.3059369691        3.7480257663  MEMB      26              0.0000000000
      4069        54  DOPC      H12Y            0.2495707091       23.8423731879        3.8964631392  MEMB      26              0.0000000000
      4070        54  DOPC      C313            1.2666757082       25.7436420805        4.3227315955  MEMB      26              0.0000000000
      4071        54  DOPC      H13X            0.9784888914       26.7586690794        4.5220780783  MEMB      26              0.0000000000
      4072        54  DOPC      H13Y            1.8168724986       25.3783603017        5.2275573023  MEMB      26              0.0000000000
      4073        54  DOPC      C314            2.4209695306       25.6909214792        3.2922399230  MEMB      26              0.0000000000
      4074        54  DOPC      H14X            3.2018340743       26.1203779493        3.9881103984  MEMB      26              0.0000000000
      4075        54  DOPC      H14Y            2.6327831474       24.6271466480        3.1199557441  MEMB      26              0.0000000000
      4076        54  DOPC      C315            2.7820717176       26.5993518591        2.0744888010  MEMB      26              0.0000000000
      4077        54  DOPC      H15X            3.7451096656       27.1277758921        2.2836765032  MEMB      26              0.0000000000
      4078        54  DOPC      H15Y            2.0790556075       27.4096454998        1.9224614747  MEMB      26              0.0000000000
      4079        54  DOPC      C316            2.9948660848       25.9167249637        0.7050828372  MEMB      26              0.0000000000
      4080        54  DOPC      H16X            2.6393319782       26.6150234778       -0.0850302280  MEMB      26              0.0000000000
      4081        54  DOPC      H16Y            4.0767429237       25.7761734446        0.5010641839  MEMB      26              0.0000000000
      4082        54  DOPC      C317            2.2715209457       24.5805627848        0.5505163156  MEMB      26              0.0000000000
      4083        54  DOPC      H17X            2.6192229122       23.8643478370        1.3196403221  MEMB      26              0.0000000000
      4084        54  DOPC      H17Y            1.1862322710       24.7456562191        0.7220276984  MEMB      26              0.0000000000
      4085        54  DOPC      C318            2.4688903113       23.9225232929       -0.8081475656  MEMB      26              0.0000000000
      4086        54  DOPC      H18X            2.3004952509       24.6632212323       -1.6174163787  MEMB      26              0.0000000000
      4087        54  DOPC      H18Y            3.4969284566       23.5113055082       -0.9019872672  MEMB      26              0.0000000000
      4088        54  DOPC      H18Z            1.7455705199       23.0930549449       -0.9188269245  MEMB      26              0.0000000000
      4089        55  DOPC      N              10.8841227072      -26.1926815729       20.3347307839  MEMB      27              0.0000000000
      4090        55  DOPC      C12             9.5451654886      -26.4203138883       21.0267680566  MEMB      27              0.0000000000
      4091        55  DOPC      H12A            9.3056258546      -25.5677938355       21.6577747336  MEMB      27              0.0000000000
      4092        55  DOPC      H12B            9.6090803710      -27.2944634671       21.6597685537  MEMB      27              0.0000000000
      4093        55  DOPC      C13            11.0341360031      -24.7876720806       19.8257828290  MEMB      27              0.0000000000
      4094        55  DOPC      H13A           11.9896427570      -24.6408010958       19.3330451493  MEMB      27              0.0000000000
      4095        55  DOPC      H13B           10.2198754439      -24.5663599958       19.1406307820  MEMB      27              0.0000000000
      4096        55  DOPC      H13C           10.9673902951      -24.0589832076       20.6289701631  MEMB      27              0.0000000000
      4097        55  DOPC      C14            10.9974136431      -27.1123019851       19.1594224668  MEMB      27              0.0000000000
      4098        55  DOPC      H14A           10.7922500860      -28.1359716060       19.4270805030  MEMB      27              0.0000000000
      4099        55  DOPC      H14B           10.2404465737      -26.8300411474       18.4270179720  MEMB      27              0.0000000000
      4100        55  DOPC      H14C           11.9566160140      -27.0362364367       18.6661817118  MEMB      27              0.0000000000
      4101        55  DOPC      C15            12.0057380658      -26.4249551909       21.2927527176  MEMB      27              0.0000000000
      4102        55  DOPC      H15A           12.0594479695      -27.4626743294       21.5803771246  MEMB      27              0.0000000000
      4103        55  DOPC      H15B           11.9012908813      -25.7994146769       22.1834898935  MEMB      27              0.0000000000
      4104        55  DOPC      H15C           12.9495279919      -26.1705845604       20.8111097069  MEMB      27              0.0000000000
      4105        55  DOPC      C11             8.3241471611      -26.6469997743       20.1236235174  MEMB      27              0.0000000000
      4106        55  DOPC      H11A            8.4473747625      -27.5680462607       19.5022395385  MEMB      27              0.0000000000
      4107        55  DOPC      H11B            7.4430883420      -26.8374721537       20.7875985462  MEMB      27              0.0000000000
      4108        55  DOPC      P               6.8917466030      -25.5058787221       18.3288508435  MEMB      27              0.0000000000
      4109        55  DOPC      O13             6.3261244443      -24.1374942603       18.3087638978  MEMB      27              0.0000000000
      4110        55  DOPC      O14             6.0020101922      -26.5915724901       18.7944944807  MEMB      27              0.0000000000
      4111        55  DOPC      O12             8.1244006489      -25.4854289594       19.3210086685  MEMB      27              0.0000000000
      4112        55  DOPC      O11             7.5817796437      -25.8203157678       16.9484378203  MEMB      27              0.0000000000
      4113        55  DOPC      C1              8.6847900990      -25.0477828951       16.4562962585  MEMB      27              0.0000000000
      4114        55  DOPC      HA              9.2885119956      -25.6775849989       15.7662461877  MEMB      27              0.0000000000
      4115        55  DOPC      HB              9.3699816742      -24.7268799509       17.2752631144  MEMB      27              0.0000000000
      4116        55  DOPC      C2              8.2779820608      -23.7658821498       15.6626896982  MEMB      27              0.0000000000
      4117        55  DOPC      HS              7.5055229158      -23.2271663580       16.2574185869  MEMB      27              0.0000000000
      4118        55  DOPC      O21             7.7907047438      -24.1124355429       14.3419392385  MEMB      27              0.0000000000
      4119        55  DOPC      C21             7.1330381627      -23.1137466978       13.7400943476  MEMB      27              0.0000000000
      4120        55  DOPC      O22             6.7576608891      -22.0978180790       14.3034811325  MEMB      27              0.0000000000
      4121        55  DOPC      C22             6.9134542165      -23.4060899267       12.2671272697  MEMB      27              0.0000000000
      4122        55  DOPC      H2R             7.8107544856      -23.9285191497       11.8791354518  MEMB      27              0.0000000000
      4123        55  DOPC      H2S             6.8301479823      -22.4286676463       11.7455603221  MEMB      27              0.0000000000
      4124        55  DOPC      C3              9.5125068277      -22.8316781893       15.5407560584  MEMB      27              0.0000000000
      4125        55  DOPC      HX              9.8331755924      -22.4946553615       16.5530750450  MEMB      27              0.0000000000
      4126        55  DOPC      HY              9.2191573962      -21.9203395714       14.9859324283  MEMB      27              0.0000000000
      4127        55  DOPC      O31            10.6097357208      -23.5357016300       14.9374061756  MEMB      27              0.0000000000
      4128        55  DOPC      C31            10.7656686496      -23.3386075173       13.6373081400  MEMB      27              0.0000000000
      4129        55  DOPC      O32            10.1175094698      -22.5791686164       12.9432599091  MEMB      27              0.0000000000
      4130        55  DOPC      C32            11.8473830911      -24.2671097131       13.1068929713  MEMB      27              0.0000000000
      4131        55  DOPC      H2X            11.9938124004      -24.0489580472       12.0302937204  MEMB      27              0.0000000000
      4132        55  DOPC      H2Y            12.7815997943      -24.0066906725       13.6293203797  MEMB      27              0.0000000000
      4133        55  DOPC      C23             5.6440698003      -24.2457857790       12.0194522240  MEMB      27              0.0000000000
      4134        55  DOPC      H3R             4.7357425997      -23.6546281204       12.2723430261  MEMB      27              0.0000000000
      4135        55  DOPC      H3S             5.6509454490      -25.1585625612       12.6605356766  MEMB      27              0.0000000000
      4136        55  DOPC      C24             5.5660473873      -24.7020336709       10.5675035479  MEMB      27              0.0000000000
      4137        55  DOPC      H4R             4.6172493765      -25.2567990331       10.3916166144  MEMB      27              0.0000000000
      4138        55  DOPC      H4S             6.4128086085      -25.4101425320       10.4016399044  MEMB      27              0.0000000000
      4139        55  DOPC      C25             5.6838017755      -23.5536229657        9.5591473733  MEMB      27              0.0000000000
      4140        55  DOPC      H5R             6.7284819228      -23.1613977733        9.5712711861  MEMB      27              0.0000000000
      4141        55  DOPC      H5S             5.0109241466      -22.7117735161        9.8370305370  MEMB      27              0.0000000000
      4142        55  DOPC      C26             5.3750483965      -24.0324530379        8.1448926029  MEMB      27              0.0000000000
      4143        55  DOPC      H6R             5.7619352961      -23.2711494685        7.4292364835  MEMB      27              0.0000000000
      4144        55  DOPC      H6S             4.2764447193      -24.1112410508        8.0023695338  MEMB      27              0.0000000000
      4145        55  DOPC      C27             6.0042259241      -25.4072170998        7.8615679776  MEMB      27              0.0000000000
      4146        55  DOPC      H7R             5.4588160762      -26.2168503424        8.3915449736  MEMB      27              0.0000000000
      4147        55  DOPC      H7S             7.0508914000      -25.3882922199        8.2482838285  MEMB      27              0.0000000000
      4148        55  DOPC      C28             6.0940233915      -25.7185791704        6.3729537910  MEMB      27              0.0000000000
      4149        55  DOPC      H8R             6.8345264738      -26.5344352089        6.2115518683  MEMB      27              0.0000000000
      4150        55  DOPC      H8S             6.5431742543      -24.7915000076        5.9564763426  MEMB      27              0.0000000000
      4151        55  DOPC      C29             4.7875858260      -26.0792790751        5.7092262186  MEMB      27              0.0000000000
      4152        55  DOPC      H9R             4.4230089666      -27.0967352672        5.9150544952  MEMB      27              0.0000000000
      4153        55  DOPC      C210            4.0727209320      -25.2697975634        4.9059981645  MEMB      27              0.0000000000
      4154        55  DOPC      H10R            3.1465958132      -25.6456533506        4.4462004325  MEMB      27              0.0000000000
      4155        55  DOPC      C211            4.4598675860      -23.8581051987        4.5408535783  MEMB      27              0.0000000000
      4156        55  DOPC      H11R            4.9976695323      -23.3865630354        5.3898876645  MEMB      27              0.0000000000
      4157        55  DOPC      H11S            3.5454439726      -23.2528243660        4.3922667270  MEMB      27              0.0000000000
      4158        55  DOPC      C212            5.3585578150      -23.6760918013        3.3045228089  MEMB      27              0.0000000000
      4159        55  DOPC      H12R            5.8772792628      -22.6935953143        3.3841412980  MEMB      27              0.0000000000
      4160        55  DOPC      H12S            4.7442449720      -23.6634989506        2.3765667300  MEMB      27              0.0000000000
      4161        55  DOPC      C213            6.4127116255      -24.7618751175        3.1590095407  MEMB      27              0.0000000000
      4162        55  DOPC      H13R            5.8951637529      -25.7081913975        2.8833230126  MEMB      27              0.0000000000
      4163        55  DOPC      H13S            6.9556775764      -24.9430493751        4.0994875311  MEMB      27              0.0000000000
      4164        55  DOPC      C214            7.4970960504      -24.4102347571        2.1636290989  MEMB      27              0.0000000000
      4165        55  DOPC      H14R            7.9424684701      -23.4160924650        2.3896688424  MEMB      27              0.0000000000
      4166        55  DOPC      H14S            7.0185404625      -24.4022175801        1.1586475664  MEMB      27              0.0000000000
      4167        55  DOPC      C215            8.5661295825      -25.4809280983        2.1448225093  MEMB      27              0.0000000000
      4168        55  DOPC      H15R            9.0134318018      -25.6095727839        3.1506900458  MEMB      27              0.0000000000
      4169        55  DOPC      H15S            9.3735914585      -25.1986129449        1.4346783992  MEMB      27              0.0000000000
      4170        55  DOPC      C216            7.8870498806      -26.7581675513        1.6924291420  MEMB      27              0.0000000000
      4171        55  DOPC      H16R            7.1435152224      -26.4936023483        0.9003591455  MEMB      27              0.0000000000
      4172        55  DOPC      H16S            7.3318999919      -27.2386837009        2.5287359995  MEMB      27              0.0000000000
      4173        55  DOPC      C217            8.8327836161      -27.7452945997        1.0719349366  MEMB      27              0.0000000000
      4174        55  DOPC      H17R            9.3980913760      -27.2481267306        0.2558370348  MEMB      27              0.0000000000
      4175        55  DOPC      H17S            8.1302764109      -28.4731912112        0.6158367523  MEMB      27              0.0000000000
      4176        55  DOPC      C218            9.7698687304      -28.4204897548        2.0699022695  MEMB      27              0.0000000000
      4177        55  DOPC      H18R           10.4226634406      -27.6682721023        2.5609786799  MEMB      27              0.0000000000
      4178        55  DOPC      H18S           10.4213841853      -29.1620376272        1.5581966796  MEMB      27              0.0000000000
      4179        55  DOPC      H18T            9.1837476020      -28.9509563205        2.8511513149  MEMB      27              0.0000000000
      4180        55  DOPC      C33            11.5396241588      -25.7650871748       13.3501905746  MEMB      27              0.0000000000
      4181        55  DOPC      H3X            11.4999381770      -25.9780476045       14.4436892973  MEMB      27              0.0000000000
      4182        55  DOPC      H3Y            12.4031670049      -26.3410799244       12.9520927646  MEMB      27              0.0000000000
      4183        55  DOPC      C34            10.2394022795      -26.2838744696       12.7037158778  MEMB      27              0.0000000000
      4184        55  DOPC      H4X             9.3787228914      -25.9626811021       13.3311283112  MEMB      27              0.0000000000
      4185        55  DOPC      H4Y            10.2547766284      -27.3979692124       12.7232061924  MEMB      27              0.0000000000
      4186        55  DOPC      C35             9.9714372013      -25.8023565419       11.2695614973  MEMB      27              0.0000000000
      4187        55  DOPC      H5X             9.8403211131      -24.6975557803       11.2649232573  MEMB      27              0.0000000000
      4188        55  DOPC      H5Y             9.0224015218      -26.2567262581       10.9044680630  MEMB      27              0.0000000000
      4189        55  DOPC      C36            11.0880684531      -26.1543876177       10.2935615252  MEMB      27              0.0000000000
      4190        55  DOPC      H6X            12.0336059323      -25.6978251883       10.6447487253  MEMB      27              0.0000000000
      4191        55  DOPC      H6Y            11.2163189083      -27.2559643374       10.2879554527  MEMB      27              0.0000000000
      4192        55  DOPC      C37            10.8233399212      -25.7037086724        8.8621624852  MEMB      27              0.0000000000
      4193        55  DOPC      H7X            10.2369691950      -24.7574863118        8.8595191970  MEMB      27              0.0000000000
      4194        55  DOPC      H7Y            11.8114991592      -25.4954619043        8.3869603004  MEMB      27              0.0000000000
      4195        55  DOPC      C38            10.0918838077      -26.8105289927        8.0864068064  MEMB      27              0.0000000000
      4196        55  DOPC      H8X             9.0026511499      -26.7500417094        8.3023304331  MEMB      27              0.0000000000
      4197        55  DOPC      H8Y            10.4320376835      -27.7896323956        8.4912725089  MEMB      27              0.0000000000
      4198        55  DOPC      C39            10.3704835994      -26.8442431543        6.6148754415  MEMB      27              0.0000000000
      4199        55  DOPC      H9X            11.0477761041      -27.6418253442        6.3195674014  MEMB      27              0.0000000000
      4200        55  DOPC      C310           10.0693262894      -25.9277033011        5.6953251544  MEMB      27              0.0000000000
      4201        55  DOPC      H10X           10.3622196394      -26.1039251751        4.6491266609  MEMB      27              0.0000000000
      4202        55  DOPC      C311            9.3682633316      -24.6367553149        5.9831072727  MEMB      27              0.0000000000
      4203        55  DOPC      H11X            8.7049167447      -24.7182902788        6.8724616970  MEMB      27              0.0000000000
      4204        55  DOPC      H11Y            8.7358264542      -24.3180122313        5.1263400977  MEMB      27              0.0000000000
      4205        55  DOPC      C312           10.4507906547      -23.5815169989        6.2465754244  MEMB      27              0.0000000000
      4206        55  DOPC      H12X           11.2745231458      -23.9598280206        6.8856797635  MEMB      27              0.0000000000
      4207        55  DOPC      H12Y            9.9635904936      -22.7708501319        6.8084328672  MEMB      27              0.0000000000
      4208        55  DOPC      C313           11.0033223647      -23.0018331288        4.9452084327  MEMB      27              0.0000000000
      4209        55  DOPC      H13X           11.1349297607      -23.8339184246        4.2387212198  MEMB      27              0.0000000000
      4210        55  DOPC      H13Y           10.2091575736      -22.3757489930        4.5029983059  MEMB      27              0.0000000000
      4211        55  DOPC      C314           12.3357531798      -22.2345465037        5.0355466898  MEMB      27              0.0000000000
      4212        55  DOPC      H14X           12.3742847820      -21.4566763111        5.8104106999  MEMB      27              0.0000000000
      4213        55  DOPC      H14Y           13.0730805030      -22.9151294874        5.4709617395  MEMB      27              0.0000000000
      4214        55  DOPC      C315           12.7570239541      -21.6058927143        3.6803602704  MEMB      27              0.0000000000
      4215        55  DOPC      H15X           13.2766139124      -22.3758590645        3.0909635516  MEMB      27              0.0000000000
      4216        55  DOPC      H15Y           13.5220455128      -20.8278808171        3.8635563268  MEMB      27              0.0000000000
      4217        55  DOPC      C316           11.5994752864      -21.0371174894        2.8136450284  MEMB      27              0.0000000000
      4218        55  DOPC      H16X           10.8306581455      -21.8290264012        2.6825999533  MEMB      27              0.0000000000
      4219        55  DOPC      H16Y           11.1085727558      -20.1929563800        3.3410529265  MEMB      27              0.0000000000
      4220        55  DOPC      C317           11.9649838297      -20.6500273444        1.3650785059  MEMB      27              0.0000000000
      4221        55  DOPC      H17X           12.6541719247      -19.7870424186        1.3276427249  MEMB      27              0.0000000000
      4222        55  DOPC      H17Y           12.5174407640      -21.5063761212        0.9209522589  MEMB      27              0.0000000000
      4223        55  DOPC      C318           10.7421129946      -20.3529724211        0.4850392247  MEMB      27              0.0000000000
      4224        55  DOPC      H18X           10.0799762230      -21.2371209585        0.4713819393  MEMB      27              0.0000000000
      4225        55  DOPC      H18Y           10.1428845634      -19.5040948122        0.8754118448  MEMB      27              0.0000000000
      4226        55  DOPC      H18Z           11.0489482300      -20.1225028606       -0.5574911143  MEMB      27              0.0000000000
      4227        56  DOPC      N             -27.0808425200        7.3056387400       20.8489796089  MEMB      28              0.0000000000
      4228        56  DOPC      C12           -26.6620163261        7.6078466973       19.4167779544  MEMB      28              0.0000000000
      4229        56  DOPC      H12A          -25.9865153168        8.4538321519       19.3737132751  MEMB      28              0.0000000000
      4230        56  DOPC      H12B          -27.5588103477        7.9200999957       18.8631605011  MEMB      28              0.0000000000
      4231        56  DOPC      C13           -27.7209030749        8.5248798567       21.3974552115  MEMB      28              0.0000000000
      4232        56  DOPC      H13A          -28.6122448933        8.7678723403       20.8158733109  MEMB      28              0.0000000000
      4233        56  DOPC      H13B          -28.0575616067        8.3320693921       22.4068608511  MEMB      28              0.0000000000
      4234        56  DOPC      H13C          -27.0594525933        9.3852588483       21.4340348878  MEMB      28              0.0000000000
      4235        56  DOPC      C14           -25.9224842500        6.8846059504       21.6953177993  MEMB      28              0.0000000000
      4236        56  DOPC      H14A          -25.4253135843        6.0461191268       21.2226636567  MEMB      28              0.0000000000
      4237        56  DOPC      H14B          -25.2332456800        7.7091398810       21.8209795146  MEMB      28              0.0000000000
      4238        56  DOPC      H14C          -26.2400022464        6.5963766093       22.6951543310  MEMB      28              0.0000000000
      4239        56  DOPC      C15           -28.0865609527        6.1946077096       20.8602383847  MEMB      28              0.0000000000
      4240        56  DOPC      H15A          -29.0498698541        6.5175497891       20.4671717021  MEMB      28              0.0000000000
      4241        56  DOPC      H15B          -28.2375817498        5.7724554852       21.8373183639  MEMB      28              0.0000000000
      4242        56  DOPC      H15C          -27.7701850270        5.4113283851       20.1695603860  MEMB      28              0.0000000000
      4243        56  DOPC      C11           -26.1004651277        6.4317930050       18.6016164503  MEMB      28              0.0000000000
      4244        56  DOPC      H11A          -25.5494471732        6.8206920651       17.7144921649  MEMB      28              0.0000000000
      4245        56  DOPC      H11B          -25.3676095958        5.8460151520       19.1956981486  MEMB      28              0.0000000000
      4246        56  DOPC      P             -28.2898827786        6.0459377294       17.1851359805  MEMB      28              0.0000000000
      4247        56  DOPC      O13           -28.9583906845        7.2383686763       17.7494054601  MEMB      28              0.0000000000
      4248        56  DOPC      O14           -29.0771354723        4.8490715162       16.8206098692  MEMB      28              0.0000000000
      4249        56  DOPC      O12           -27.1637700161        5.5735164063       18.2154785450  MEMB      28              0.0000000000
      4250        56  DOPC      O11           -27.4123491741        6.5298726607       15.9677956424  MEMB      28              0.0000000000
      4251        56  DOPC      C1            -26.3459902499        5.7455557930       15.4480707542  MEMB      28              0.0000000000
      4252        56  DOPC      HA            -26.1522259509        4.8194091435       16.0419316342  MEMB      28              0.0000000000
      4253        56  DOPC      HB            -25.4111324908        6.3491863369       15.4608250809  MEMB      28              0.0000000000
      4254        56  DOPC      C2            -26.6419751883        5.3206315080       13.9933987394  MEMB      28              0.0000000000
      4255        56  DOPC      HS            -25.6717437982        4.9638222503       13.5844170402  MEMB      28              0.0000000000
      4256        56  DOPC      O21           -27.1727435846        6.4072401753       13.2113132076  MEMB      28              0.0000000000
      4257        56  DOPC      C21           -26.2927680362        7.3444266405       12.9093524363  MEMB      28              0.0000000000
      4258        56  DOPC      O22           -25.0872685329        7.2676244599       13.0708189937  MEMB      28              0.0000000000
      4259        56  DOPC      C22           -26.9976895188        8.5604534216       12.2764028398  MEMB      28              0.0000000000
      4260        56  DOPC      H2R           -26.4940703056        8.7681516200       11.3103389721  MEMB      28              0.0000000000
      4261        56  DOPC      H2S           -26.8319396390        9.4241858725       12.9506896729  MEMB      28              0.0000000000
      4262        56  DOPC      C3            -27.6621576247        4.1413999176       13.9844991363  MEMB      28              0.0000000000
      4263        56  DOPC      HX            -28.5905953191        4.5445199221       14.4486596317  MEMB      28              0.0000000000
      4264        56  DOPC      HY            -27.2994521996        3.3290243660       14.6492019375  MEMB      28              0.0000000000
      4265        56  DOPC      O31           -28.0241850997        3.6237645006       12.6895294518  MEMB      28              0.0000000000
      4266        56  DOPC      C31           -27.0849297184        3.4013200589       11.7905407291  MEMB      28              0.0000000000
      4267        56  DOPC      O32           -25.8828125621        3.4756351266       11.9313455475  MEMB      28              0.0000000000
      4268        56  DOPC      C32           -27.7362123679        3.1505571812       10.4376895017  MEMB      28              0.0000000000
      4269        56  DOPC      H2X           -27.2834636602        2.2336690862       10.0077740754  MEMB      28              0.0000000000
      4270        56  DOPC      H2Y           -28.8211701506        2.9742875313       10.5880170698  MEMB      28              0.0000000000
      4271        56  DOPC      C23           -28.5120897049        8.3236048253       12.0485604361  MEMB      28              0.0000000000
      4272        56  DOPC      H3R           -29.0111936085        8.1976440816       13.0376155008  MEMB      28              0.0000000000
      4273        56  DOPC      H3S           -28.6209912387        7.3657277536       11.4951190577  MEMB      28              0.0000000000
      4274        56  DOPC      C24           -29.2568804886        9.4121830674       11.2607729417  MEMB      28              0.0000000000
      4275        56  DOPC      H4R           -28.7358406508        9.6285617966       10.3047599256  MEMB      28              0.0000000000
      4276        56  DOPC      H4S           -29.2577245983       10.3483304553       11.8636936035  MEMB      28              0.0000000000
      4277        56  DOPC      C25           -30.7180720076        9.0119447320       10.9647141799  MEMB      28              0.0000000000
      4278        56  DOPC      H5R           -31.2556126228        9.9126704311       10.5882957079  MEMB      28              0.0000000000
      4279        56  DOPC      H5S           -31.2061540469        8.7059985390       11.9169054936  MEMB      28              0.0000000000
      4280        56  DOPC      C26           -30.8520197333        7.8932533583        9.9096001888  MEMB      28              0.0000000000
      4281        56  DOPC      H6R           -30.0797413569        7.1116630372       10.0731102207  MEMB      28              0.0000000000
      4282        56  DOPC      H6S           -30.6497032921        8.3610746021        8.9222918540  MEMB      28              0.0000000000
      4283        56  DOPC      C27           -32.2169294298        7.1748451376        9.8972812988  MEMB      28              0.0000000000
      4284        56  DOPC      H7R           -33.0294456567        7.9245383602        9.8738170514  MEMB      28              0.0000000000
      4285        56  DOPC      H7S           -32.3307202633        6.6106941167       10.8517125160  MEMB      28              0.0000000000
      4286        56  DOPC      C28           -32.4750374082        6.2092878599        8.7118891138  MEMB      28              0.0000000000
      4287        56  DOPC      H8R           -33.4904994782        6.4433167487        8.3148174988  MEMB      28              0.0000000000
      4288        56  DOPC      H8S           -32.5428582961        5.1836804324        9.1406454739  MEMB      28              0.0000000000
      4289        56  DOPC      C29           -31.4887406848        6.2583603188        7.5709921112  MEMB      28              0.0000000000
      4290        56  DOPC      H9R           -31.4380294345        7.2228196170        7.0406669686  MEMB      28              0.0000000000
      4291        56  DOPC      C210          -30.7201694490        5.2382696907        7.1445314545  MEMB      28              0.0000000000
      4292        56  DOPC      H10R          -30.0524911629        5.4110013653        6.2872282725  MEMB      28              0.0000000000
      4293        56  DOPC      C211          -30.7165678143        3.8477259396        7.7416669561  MEMB      28              0.0000000000
      4294        56  DOPC      H11R          -31.7195377750        3.3977432035        7.5758791266  MEMB      28              0.0000000000
      4295        56  DOPC      H11S          -30.6067887260        3.9006245507        8.8501875953  MEMB      28              0.0000000000
      4296        56  DOPC      C212          -29.7139308374        2.7956250806        7.1909333961  MEMB      28              0.0000000000
      4297        56  DOPC      H12R          -30.2555880767        1.8212542446        7.1659315033  MEMB      28              0.0000000000
      4298        56  DOPC      H12S          -28.8739245032        2.6589941779        7.9046434478  MEMB      28              0.0000000000
      4299        56  DOPC      C213          -29.1286793297        3.0574539072        5.7875851315  MEMB      28              0.0000000000
      4300        56  DOPC      H13R          -28.4000111499        3.8960649205        5.8470877958  MEMB      28              0.0000000000
      4301        56  DOPC      H13S          -29.9466901576        3.3517262564        5.0962403638  MEMB      28              0.0000000000
      4302        56  DOPC      C214          -28.4224193697        1.8203886568        5.2160282482  MEMB      28              0.0000000000
      4303        56  DOPC      H14R          -29.1470783965        0.9733275839        5.2209719392  MEMB      28              0.0000000000
      4304        56  DOPC      H14S          -27.5738120820        1.5692453884        5.8921908816  MEMB      28              0.0000000000
      4305        56  DOPC      C215          -27.8815473012        1.9445631185        3.7853649826  MEMB      28              0.0000000000
      4306        56  DOPC      H15R          -28.7093103767        2.2192707822        3.0948564572  MEMB      28              0.0000000000
      4307        56  DOPC      H15S          -27.5091934669        0.9399913916        3.4698796469  MEMB      28              0.0000000000
      4308        56  DOPC      C216          -26.7242131326        2.9451061364        3.6582568776  MEMB      28              0.0000000000
      4309        56  DOPC      H16R          -26.0037844957        2.7941676847        4.4927018282  MEMB      28              0.0000000000
      4310        56  DOPC      H16S          -27.1348486972        3.9743159742        3.7545040148  MEMB      28              0.0000000000
      4311        56  DOPC      C217          -25.9733715335        2.7982292836        2.3263406726  MEMB      28              0.0000000000
      4312        56  DOPC      H17R          -26.7355219873        2.7313594002        1.5226665369  MEMB      28              0.0000000000
      4313        56  DOPC      H17S          -25.4117371469        1.8362314714        2.3213019262  MEMB      28              0.0000000000
      4314        56  DOPC      C218          -25.0166823693        3.9517259247        2.0067003169  MEMB      28              0.0000000000
      4315        56  DOPC      H18R          -24.0975104002        3.8923191731        2.6252715366  MEMB      28              0.0000000000
      4316        56  DOPC      H18S          -25.5076649683        4.9251998778        2.2154924972  MEMB      28              0.0000000000
      4317        56  DOPC      H18T          -24.7242062566        3.9375538299        0.9335020008  MEMB      28              0.0000000000
      4318        56  DOPC      C33           -27.4986188292        4.3778908218        9.5222474599  MEMB      28              0.0000000000
      4319        56  DOPC      H3X           -27.4583785415        5.3043297891       10.1407502484  MEMB      28              0.0000000000
      4320        56  DOPC      H3Y           -28.3669753735        4.5040351244        8.8441755966  MEMB      28              0.0000000000
      4321        56  DOPC      C34           -26.2289081223        4.2726169783        8.6567309845  MEMB      28              0.0000000000
      4322        56  DOPC      H4X           -26.2328168601        3.3005902971        8.1139219570  MEMB      28              0.0000000000
      4323        56  DOPC      H4Y           -25.3445195721        4.2698635578        9.3357141158  MEMB      28              0.0000000000
      4324        56  DOPC      C35           -26.0691479828        5.4235827077        7.6365466123  MEMB      28              0.0000000000
      4325        56  DOPC      H5X           -26.7842863450        5.2671828276        6.7976261472  MEMB      28              0.0000000000
      4326        56  DOPC      H5Y           -25.0414099981        5.3855903745        7.2123171620  MEMB      28              0.0000000000
      4327        56  DOPC      C36           -26.3387587125        6.8029088782        8.2602091539  MEMB      28              0.0000000000
      4328        56  DOPC      H6X           -27.4309460185        6.8581775907        8.4801710095  MEMB      28              0.0000000000
      4329        56  DOPC      H6Y           -25.7966255654        6.8775446267        9.2293114659  MEMB      28              0.0000000000
      4330        56  DOPC      C37           -25.9880771043        8.0383850975        7.4104445053  MEMB      28              0.0000000000
      4331        56  DOPC      H7X           -24.8900298458        8.1170970442        7.2674474475  MEMB      28              0.0000000000
      4332        56  DOPC      H7Y           -26.4498514433        7.9330944609        6.4054987476  MEMB      28              0.0000000000
      4333        56  DOPC      C38           -26.5214723045        9.3110273292        8.1124174381  MEMB      28              0.0000000000
      4334        56  DOPC      H8X           -25.8953192610        9.4898814409        9.0145616497  MEMB      28              0.0000000000
      4335        56  DOPC      H8Y           -27.5277564529        9.0370864310        8.4959409298  MEMB      28              0.0000000000
      4336        56  DOPC      C39           -26.5993007981       10.5693090993        7.2810067114  MEMB      28              0.0000000000
      4337        56  DOPC      H9X           -25.6341951360       11.0612054196        7.0820128317  MEMB      28              0.0000000000
      4338        56  DOPC      C310          -27.7246019841       11.1477493530        6.8137877240  MEMB      28              0.0000000000
      4339        56  DOPC      H10X          -27.6270512594       12.0805213081        6.2346258358  MEMB      28              0.0000000000
      4340        56  DOPC      C311          -29.1459199815       10.6658381522        7.0185562995  MEMB      28              0.0000000000
      4341        56  DOPC      H11X          -29.7971950448       11.5354642656        7.2506228299  MEMB      28              0.0000000000
      4342        56  DOPC      H11Y          -29.2374634852       10.0002502083        7.9028476439  MEMB      28              0.0000000000
      4343        56  DOPC      C312          -29.7795473561        9.9351007296        5.8138660408  MEMB      28              0.0000000000
      4344        56  DOPC      H12X          -29.9515406003       10.6596711797        4.9932286749  MEMB      28              0.0000000000
      4345        56  DOPC      H12Y          -30.7855825424        9.5711232371        6.1111159517  MEMB      28              0.0000000000
      4346        56  DOPC      C313          -28.9662956851        8.7490116737        5.2710174211  MEMB      28              0.0000000000
      4347        56  DOPC      H13X          -27.9701309271        9.1230115296        4.9424271345  MEMB      28              0.0000000000
      4348        56  DOPC      H13Y          -28.8047413574        7.9985455475        6.0749706750  MEMB      28              0.0000000000
      4349        56  DOPC      C314          -29.6513879833        8.0896159260        4.0675934113  MEMB      28              0.0000000000
      4350        56  DOPC      H14X          -30.5133099437        7.4785296360        4.4112740969  MEMB      28              0.0000000000
      4351        56  DOPC      H14Y          -30.0530789845        8.9013909406        3.4349338420  MEMB      28              0.0000000000
      4352        56  DOPC      C315          -28.7032388375        7.2511559188        3.2017838535  MEMB      28              0.0000000000
      4353        56  DOPC      H15X          -28.2267612621        6.4737102687        3.8387271724  MEMB      28              0.0000000000
      4354        56  DOPC      H15Y          -27.9004594017        7.9119807373        2.8030871374  MEMB      28              0.0000000000
      4355        56  DOPC      C316          -29.4223061604        6.5632505069        2.0341713379  MEMB      28              0.0000000000
      4356        56  DOPC      H16X          -30.3095367376        6.0226306869        2.4339640021  MEMB      28              0.0000000000
      4357        56  DOPC      H16Y          -29.7903021514        7.3175323867        1.3049618520  MEMB      28              0.0000000000
      4358        56  DOPC      C317          -28.5440474680        5.5566928680        1.2845274591  MEMB      28              0.0000000000
      4359        56  DOPC      H17X          -28.2023327608        4.7715965826        1.9947468499  MEMB      28              0.0000000000
      4360        56  DOPC      H17Y          -29.1938147421        5.0601065912        0.5311744779  MEMB      28              0.0000000000
      4361        56  DOPC      C318          -27.3348547086        6.1675549169        0.5714197735  MEMB      28              0.0000000000
      4362        56  DOPC      H18X          -27.6562924872        6.9784296073       -0.1128661937  MEMB      28              0.0000000000
      4363        56  DOPC      H18Y          -26.6168539100        6.5937069252        1.3029838220  MEMB      28              0.0000000000
      4364        56  DOPC      H18Z          -26.8078574295        5.3913481587       -0.0254546748  MEMB      28              0.0000000000
      4365        57  DOPC      N              27.4883230943        0.8110035463       20.5796951318  MEMB      29              0.0000000000
      4366        57  DOPC      C12            27.8936471237       -0.4623824881       19.8225536027  MEMB      29              0.0000000000
      4367        57  DOPC      H12A           27.5753587140       -1.3399334483       20.3808868926  MEMB      29              0.0000000000
      4368        57  DOPC      H12B           28.9764443426       -0.4929432542       19.7187754016  MEMB      29              0.0000000000
      4369        57  DOPC      C13            28.2177388582        0.9283809025       21.8753896404  MEMB      29              0.0000000000
      4370        57  DOPC      H13A           28.2101903590        1.9504327842       22.2457034146  MEMB      29              0.0000000000
      4371        57  DOPC      H13B           27.7625616456        0.3020436282       22.6289631403  MEMB      29              0.0000000000
      4372        57  DOPC      H13C           29.2744041534        0.6799489096       21.7638124092  MEMB      29              0.0000000000
      4373        57  DOPC      C14            26.0208370771        0.8025378961       20.8586801104  MEMB      29              0.0000000000
      4374        57  DOPC      H14A           25.6711776216        1.7156980117       21.3019276966  MEMB      29              0.0000000000
      4375        57  DOPC      H14B           25.4862844834        0.6233055750       19.9213088681  MEMB      29              0.0000000000
      4376        57  DOPC      H14C           25.7455584379       -0.0269471358       21.4994020417  MEMB      29              0.0000000000
      4377        57  DOPC      C15            27.7944660045        1.9987149800       19.7401618792  MEMB      29              0.0000000000
      4378        57  DOPC      H15A           27.3195366586        1.8708281283       18.7692839189  MEMB      29              0.0000000000
      4379        57  DOPC      H15B           28.8624453473        2.0645688337       19.5773755916  MEMB      29              0.0000000000
      4380        57  DOPC      H15C           27.4223394810        2.9017417499       20.1984562020  MEMB      29              0.0000000000
      4381        57  DOPC      C11            27.3444251638       -0.6322713007       18.3824601930  MEMB      29              0.0000000000
      4382        57  DOPC      H11A           27.7637615737        0.1557230015       17.7215315997  MEMB      29              0.0000000000
      4383        57  DOPC      H11B           27.6744145590       -1.6033856626       17.9451658135  MEMB      29              0.0000000000
      4384        57  DOPC      P              25.0070565592       -1.7233120131       18.7315875814  MEMB      29              0.0000000000
      4385        57  DOPC      O13            23.8116744466       -1.2530725062       19.4762742503  MEMB      29              0.0000000000
      4386        57  DOPC      O14            25.7588675028       -2.7923157764       19.4462651682  MEMB      29              0.0000000000
      4387        57  DOPC      O12            25.9401355861       -0.5164109510       18.3682027907  MEMB      29              0.0000000000
      4388        57  DOPC      O11            24.5957971347       -2.4219565356       17.3711458534  MEMB      29              0.0000000000
      4389        57  DOPC      C1             24.5782021342       -1.7364203934       16.1186841239  MEMB      29              0.0000000000
      4390        57  DOPC      HA             24.9869515429       -0.7128106690       16.2137004331  MEMB      29              0.0000000000
      4391        57  DOPC      HB             23.5195839757       -1.6410725788       15.7811504810  MEMB      29              0.0000000000
      4392        57  DOPC      C2             25.3683275474       -2.4812990065       14.9891511953  MEMB      29              0.0000000000
      4393        57  DOPC      HS             24.9449547126       -3.5147233867       14.9673844047  MEMB      29              0.0000000000
      4394        57  DOPC      O21            26.7868815495       -2.5078086385       15.2898142739  MEMB      29              0.0000000000
      4395        57  DOPC      C21            27.4181822436       -3.2875654684       14.4032352807  MEMB      29              0.0000000000
      4396        57  DOPC      O22            26.8622230518       -4.1114625062       13.7004016679  MEMB      29              0.0000000000
      4397        57  DOPC      C22            28.9272417353       -3.0960889947       14.4604503301  MEMB      29              0.0000000000
      4398        57  DOPC      H2R            29.4039581174       -4.0495708881       14.1462371425  MEMB      29              0.0000000000
      4399        57  DOPC      H2S            29.2150529701       -2.8730523761       15.5070398547  MEMB      29              0.0000000000
      4400        57  DOPC      C3             25.1460514879       -1.8451084450       13.5590140551  MEMB      29              0.0000000000
      4401        57  DOPC      HX             24.1707488182       -1.3130333293       13.5207657096  MEMB      29              0.0000000000
      4402        57  DOPC      HY             25.0555550520       -2.6987166368       12.8454619033  MEMB      29              0.0000000000
      4403        57  DOPC      O31            26.2450835224       -1.0208532075       13.0862764928  MEMB      29              0.0000000000
      4404        57  DOPC      C31            26.2898510927        0.1895501713       13.6275140007  MEMB      29              0.0000000000
      4405        57  DOPC      O32            25.5379950748        0.5981140695       14.4858413679  MEMB      29              0.0000000000
      4406        57  DOPC      C32            27.3611290865        1.0715189131       13.0117162321  MEMB      29              0.0000000000
      4407        57  DOPC      H2X            27.7877897457        1.6754126232       13.8446506735  MEMB      29              0.0000000000
      4408        57  DOPC      H2Y            28.1567889411        0.4610464179       12.5669098785  MEMB      29              0.0000000000
      4409        57  DOPC      C23            29.4039620623       -1.9581778857       13.5320745229  MEMB      29              0.0000000000
      4410        57  DOPC      H3R            30.4868234750       -1.8004068492       13.7028963777  MEMB      29              0.0000000000
      4411        57  DOPC      H3S            28.8907353667       -1.0152700130       13.8000970876  MEMB      29              0.0000000000
      4412        57  DOPC      C24            29.2420116133       -2.2808646764       12.0420572519  MEMB      29              0.0000000000
      4413        57  DOPC      H4R            28.1820643272       -2.1700868774       11.7450310399  MEMB      29              0.0000000000
      4414        57  DOPC      H4S            29.4774018070       -3.3624003702       11.9088229121  MEMB      29              0.0000000000
      4415        57  DOPC      C25            30.2167475482       -1.5138674720       11.1225252513  MEMB      29              0.0000000000
      4416        57  DOPC      H5R            30.4617523363       -2.1796793172       10.2708558063  MEMB      29              0.0000000000
      4417        57  DOPC      H5S            31.1654799076       -1.2993400337       11.6609488047  MEMB      29              0.0000000000
      4418        57  DOPC      C26            29.7138842974       -0.2391706587       10.4444476273  MEMB      29              0.0000000000
      4419        57  DOPC      H6R            30.5067295685        0.1299294918        9.7527871588  MEMB      29              0.0000000000
      4420        57  DOPC      H6S            29.5937172933        0.5447842212       11.2153921811  MEMB      29              0.0000000000
      4421        57  DOPC      C27            28.4265949644       -0.4286280093        9.6268223379  MEMB      29              0.0000000000
      4422        57  DOPC      H7R            27.8018527906        0.4718108569        9.7423189675  MEMB      29              0.0000000000
      4423        57  DOPC      H7S            27.7977224223       -1.2516293837       10.0235000699  MEMB      29              0.0000000000
      4424        57  DOPC      C28            28.6897886098       -0.6426849065        8.1258893944  MEMB      29              0.0000000000
      4425        57  DOPC      H8R            29.4466960088        0.0807315572        7.7551779666  MEMB      29              0.0000000000
      4426        57  DOPC      H8S            27.7457485700       -0.4366336685        7.5780577209  MEMB      29              0.0000000000
      4427        57  DOPC      C29            29.1191239811       -2.0711194181        7.9548677550  MEMB      29              0.0000000000
      4428        57  DOPC      H9R            30.2045320037       -2.2512099415        7.9653047250  MEMB      29              0.0000000000
      4429        57  DOPC      C210           28.2636943882       -3.1014238347        7.8506504550  MEMB      29              0.0000000000
      4430        57  DOPC      H10R           28.6528252524       -4.1265347707        7.8500773060  MEMB      29              0.0000000000
      4431        57  DOPC      C211           26.7610571145       -3.0150972453        7.8743362358  MEMB      29              0.0000000000
      4432        57  DOPC      H11R           26.3871491343       -1.9724728855        7.9920696564  MEMB      29              0.0000000000
      4433        57  DOPC      H11S           26.3563001935       -3.5909238225        8.7345135472  MEMB      29              0.0000000000
      4434        57  DOPC      C212           26.2036231031       -3.5746475522        6.5568638117  MEMB      29              0.0000000000
      4435        57  DOPC      H12R           25.0923524261       -3.5373911811        6.6228811687  MEMB      29              0.0000000000
      4436        57  DOPC      H12S           26.4892954900       -4.6423290528        6.4311379748  MEMB      29              0.0000000000
      4437        57  DOPC      C213           26.6582942972       -2.7689083664        5.3245769498  MEMB      29              0.0000000000
      4438        57  DOPC      H13R           27.4550460333       -3.3177790945        4.7770677172  MEMB      29              0.0000000000
      4439        57  DOPC      H13S           27.1094948102       -1.8138875094        5.6726194168  MEMB      29              0.0000000000
      4440        57  DOPC      C214           25.4981094950       -2.4264770127        4.3829675188  MEMB      29              0.0000000000
      4441        57  DOPC      H14R           25.7691040408       -1.5504003214        3.7514855296  MEMB      29              0.0000000000
      4442        57  DOPC      H14S           24.6237264462       -2.1264618961        5.0036485905  MEMB      29              0.0000000000
      4443        57  DOPC      C215           25.1157603441       -3.6048029700        3.4781710987  MEMB      29              0.0000000000
      4444        57  DOPC      H15R           25.4151977862       -4.5539893913        3.9783691062  MEMB      29              0.0000000000
      4445        57  DOPC      H15S           25.7015688550       -3.5466246255        2.5350043028  MEMB      29              0.0000000000
      4446        57  DOPC      C216           23.6094860836       -3.6847612931        3.1879961510  MEMB      29              0.0000000000
      4447        57  DOPC      H16R           23.0629871373       -3.7625117104        4.1558465317  MEMB      29              0.0000000000
      4448        57  DOPC      H16S           23.4096823404       -4.6203618520        2.6173648683  MEMB      29              0.0000000000
      4449        57  DOPC      C217           23.0509758140       -2.4973712832        2.3924288274  MEMB      29              0.0000000000
      4450        57  DOPC      H17R           23.1225340635       -1.5712826510        3.0063394511  MEMB      29              0.0000000000
      4451        57  DOPC      H17S           21.9674733549       -2.6861755938        2.2090238604  MEMB      29              0.0000000000
      4452        57  DOPC      C218           23.7536630110       -2.2679705417        1.0530001501  MEMB      29              0.0000000000
      4453        57  DOPC      H18R           23.2266378867       -1.4865263395        0.4725946346  MEMB      29              0.0000000000
      4454        57  DOPC      H18S           23.7605491574       -3.2041929168        0.4530688187  MEMB      29              0.0000000000
      4455        57  DOPC      H18T           24.8012882438       -1.9303879763        1.2029990070  MEMB      29              0.0000000000
      4456        57  DOPC      C33            26.7365023486        2.0276165569       11.9798257613  MEMB      29              0.0000000000
      4457        57  DOPC      H3X            25.8182470805        2.4691287259       12.4382665668  MEMB      29              0.0000000000
      4458        57  DOPC      H3Y            26.4195853675        1.4901552038       11.0599475950  MEMB      29              0.0000000000
      4459        57  DOPC      C34            27.6559296174        3.2018108443       11.6402461839  MEMB      29              0.0000000000
      4460        57  DOPC      H4X            28.4539833074        3.2758333107       12.4157616886  MEMB      29              0.0000000000
      4461        57  DOPC      H4Y            27.0484495610        4.1306807585       11.7055407954  MEMB      29              0.0000000000
      4462        57  DOPC      C35            28.3323460712        3.1334128980       10.2647905273  MEMB      29              0.0000000000
      4463        57  DOPC      H5X            29.0262677012        2.2734772800       10.2239151242  MEMB      29              0.0000000000
      4464        57  DOPC      H5Y            28.9817843466        4.0360947408       10.1717639273  MEMB      29              0.0000000000
      4465        57  DOPC      C36            27.4283813039        3.0734517509        9.0157607096  MEMB      29              0.0000000000
      4466        57  DOPC      H6X            27.0378641498        2.0545478654        8.8321389015  MEMB      29              0.0000000000
      4467        57  DOPC      H6Y            26.5548645464        3.7514428657        9.1151148309  MEMB      29              0.0000000000
      4468        57  DOPC      C37            28.3020415955        3.5153122379        7.8402330618  MEMB      29              0.0000000000
      4469        57  DOPC      H7X            28.4323631134        4.6040829748        8.0209229150  MEMB      29              0.0000000000
      4470        57  DOPC      H7Y            29.2975168460        3.0208299102        7.9447882295  MEMB      29              0.0000000000
      4471        57  DOPC      C38            27.8089163567        3.3251999034        6.3956922696  MEMB      29              0.0000000000
      4472        57  DOPC      H8X            28.5642301266        3.7877902347        5.7196645436  MEMB      29              0.0000000000
      4473        57  DOPC      H8Y            26.8831283560        3.9220892481        6.2536016484  MEMB      29              0.0000000000
      4474        57  DOPC      C39            27.6678466617        1.8820498272        5.9899306583  MEMB      29              0.0000000000
      4475        57  DOPC      H9X            28.6116157063        1.3272885666        5.8694117969  MEMB      29              0.0000000000
      4476        57  DOPC      C310           26.5156125704        1.2384196558        5.7537252492  MEMB      29              0.0000000000
      4477        57  DOPC      H10X           26.5383129340        0.1898636699        5.4219091481  MEMB      29              0.0000000000
      4478        57  DOPC      C311           25.1447733356        1.8389217345        5.8495226269  MEMB      29              0.0000000000
      4479        57  DOPC      H11X           25.1534883329        2.9454864559        5.8879922552  MEMB      29              0.0000000000
      4480        57  DOPC      H11Y           24.6746737491        1.4944259663        6.7988799890  MEMB      29              0.0000000000
      4481        57  DOPC      C312           24.2300649686        1.4185970914        4.6916856266  MEMB      29              0.0000000000
      4482        57  DOPC      H12X           23.2174179753        1.7297817024        5.0045234424  MEMB      29              0.0000000000
      4483        57  DOPC      H12Y           24.2058301805        0.3110472430        4.5963663450  MEMB      29              0.0000000000
      4484        57  DOPC      C313           24.4378128682        2.0775284339        3.3098131797  MEMB      29              0.0000000000
      4485        57  DOPC      H13X           24.5451022282        1.2523258364        2.5702632804  MEMB      29              0.0000000000
      4486        57  DOPC      H13Y           23.5033152404        2.6269319681        3.0463427183  MEMB      29              0.0000000000
      4487        57  DOPC      C314           25.6078133979        3.0642522032        3.1845332559  MEMB      29              0.0000000000
      4488        57  DOPC      H14X           25.4606418314        3.9054556411        3.8985375953  MEMB      29              0.0000000000
      4489        57  DOPC      H14Y           26.5566670838        2.5511838715        3.4522409129  MEMB      29              0.0000000000
      4490        57  DOPC      C315           25.7951815079        3.6481576245        1.7781320796  MEMB      29              0.0000000000
      4491        57  DOPC      H15X           26.8164174944        4.0933616317        1.7358226200  MEMB      29              0.0000000000
      4492        57  DOPC      H15Y           25.0649877015        4.4708482714        1.6084615090  MEMB      29              0.0000000000
      4493        57  DOPC      C316           25.6548910994        2.6263757205        0.6420309211  MEMB      29              0.0000000000
      4494        57  DOPC      H16X           26.1866966519        1.6880268717        0.8957120801  MEMB      29              0.0000000000
      4495        57  DOPC      H16Y           24.5879518792        2.3533653321        0.5296318551  MEMB      29              0.0000000000
      4496        57  DOPC      C317           26.2280906841        3.1894700805       -0.6604331505  MEMB      29              0.0000000000
      4497        57  DOPC      H17X           25.6916170912        4.1346823934       -0.8939125691  MEMB      29              0.0000000000
      4498        57  DOPC      H17Y           27.2828707471        3.4686102802       -0.4510294919  MEMB      29              0.0000000000
      4499        57  DOPC      C318           26.2008700977        2.2492092313       -1.8710398576  MEMB      29              0.0000000000
      4500        57  DOPC      H18X           26.3640262399        1.1988216531       -1.5593071249  MEMB      29              0.0000000000
      4501        57  DOPC      H18Y           25.2298300518        2.2799264961       -2.4004621624  MEMB      29              0.0000000000
      4502        57  DOPC      H18Z           26.9878074314        2.5439204398       -2.5982531703  MEMB      29              0.0000000000
      4503        58  DOPC      N               7.1294129806       25.7867553561       19.7287716158  MEMB      30              0.0000000000
      4504        58  DOPC      C12             6.9363947970       27.1822511566       20.3012301965  MEMB      30              0.0000000000
      4505        58  DOPC      H12A            7.6385446297       27.8355346329       19.7861957950  MEMB      30              0.0000000000
      4506        58  DOPC      H12B            7.1946055681       27.2128157205       21.3492601290  MEMB      30              0.0000000000
      4507        58  DOPC      C13             8.0198298755       24.8897247740       20.5157191397  MEMB      30              0.0000000000
      4508        58  DOPC      H13A            9.0320543460       25.2839920455       20.5427958446  MEMB      30              0.0000000000
      4509        58  DOPC      H13B            7.6550946913       24.7439220070       21.5150640776  MEMB      30              0.0000000000
      4510        58  DOPC      H13C            8.1002458529       23.9249152592       20.0137876863  MEMB      30              0.0000000000
      4511        58  DOPC      C14             7.7848964369       25.9441233936       18.3925511208  MEMB      30              0.0000000000
      4512        58  DOPC      H14A            7.8767462829       25.0133503302       17.8486262040  MEMB      30              0.0000000000
      4513        58  DOPC      H14B            7.2106198250       26.6262566934       17.7655875448  MEMB      30              0.0000000000
      4514        58  DOPC      H14C            8.7859599159       26.3602920884       18.4721129571  MEMB      30              0.0000000000
      4515        58  DOPC      C15             5.7952837093       25.1511560104       19.5278885384  MEMB      30              0.0000000000
      4516        58  DOPC      H15A            5.1411130916       25.9063586140       19.0774861332  MEMB      30              0.0000000000
      4517        58  DOPC      H15B            5.3456738867       24.8508088996       20.4582284066  MEMB      30              0.0000000000
      4518        58  DOPC      H15C            5.8845988858       24.3396955182       18.8335552628  MEMB      30              0.0000000000
      4519        58  DOPC      C11             5.5526569576       27.8592048044       20.0800490863  MEMB      30              0.0000000000
      4520        58  DOPC      H11A            4.7907899517       27.4367665021       20.7705176637  MEMB      30              0.0000000000
      4521        58  DOPC      H11B            5.7021086720       28.9294522430       20.3702173608  MEMB      30              0.0000000000
      4522        58  DOPC      P               4.2968963802       28.9216454405       18.0685626677  MEMB      30              0.0000000000
      4523        58  DOPC      O13             5.2342436258       30.0275160470       17.7901281791  MEMB      30              0.0000000000
      4524        58  DOPC      O14             3.1661811890       29.2341162976       18.9817812518  MEMB      30              0.0000000000
      4525        58  DOPC      O12             5.0979405126       27.7152351577       18.7230631781  MEMB      30              0.0000000000
      4526        58  DOPC      O11             3.6686582319       28.3641459943       16.7367069828  MEMB      30              0.0000000000
      4527        58  DOPC      C1              3.5475565498       27.0137233565       16.3446880420  MEMB      30              0.0000000000
      4528        58  DOPC      HA              2.8173229974       26.9787688009       15.5121552921  MEMB      30              0.0000000000
      4529        58  DOPC      HB              3.1568500847       26.3803532690       17.1679873391  MEMB      30              0.0000000000
      4530        58  DOPC      C2              4.8688769504       26.4430468320       15.7816230969  MEMB      30              0.0000000000
      4531        58  DOPC      HS              5.4769345800       26.2011534833       16.6845474352  MEMB      30              0.0000000000
      4532        58  DOPC      O21             5.5003773671       27.4236779322       14.9281333040  MEMB      30              0.0000000000
      4533        58  DOPC      C21             6.8163930579       27.4202267135       15.0213819520  MEMB      30              0.0000000000
      4534        58  DOPC      O22             7.4568439346       26.6602071895       15.7235915057  MEMB      30              0.0000000000
      4535        58  DOPC      C22             7.4820023358       28.4024400818       14.0804969410  MEMB      30              0.0000000000
      4536        58  DOPC      H2R             8.5226023541       28.0498496529       13.9137498369  MEMB      30              0.0000000000
      4537        58  DOPC      H2S             7.5340197759       29.3703562182       14.6101368766  MEMB      30              0.0000000000
      4538        58  DOPC      C3              4.6286359201       25.1374777286       14.9812145757  MEMB      30              0.0000000000
      4539        58  DOPC      HX              4.0727256964       24.4284003686       15.6287792853  MEMB      30              0.0000000000
      4540        58  DOPC      HY              5.6150971443       24.6660410215       14.7450493045  MEMB      30              0.0000000000
      4541        58  DOPC      O31             3.8171653023       25.4362300472       13.8247410910  MEMB      30              0.0000000000
      4542        58  DOPC      C31             4.5169541463       25.5863675624       12.6878732161  MEMB      30              0.0000000000
      4543        58  DOPC      O32             5.6082704040       25.0854725715       12.4809359061  MEMB      30              0.0000000000
      4544        58  DOPC      C32             3.8226835605       26.5507574355       11.7191496386  MEMB      30              0.0000000000
      4545        58  DOPC      H2X             2.9895018304       27.0353157458       12.2506434988  MEMB      30              0.0000000000
      4546        58  DOPC      H2Y             4.5539741957       27.3498466959       11.5280318709  MEMB      30              0.0000000000
      4547        58  DOPC      C23             6.7527247838       28.5801807814       12.7360766682  MEMB      30              0.0000000000
      4548        58  DOPC      H3R             5.6830960482       28.8346973908       12.9272519704  MEMB      30              0.0000000000
      4549        58  DOPC      H3S             6.7920357275       27.6386202539       12.1508239186  MEMB      30              0.0000000000
      4550        58  DOPC      C24             7.3771764160       29.7327596084       11.9489431817  MEMB      30              0.0000000000
      4551        58  DOPC      H4R             8.4060796099       29.4874468388       11.6169726907  MEMB      30              0.0000000000
      4552        58  DOPC      H4S             7.4706017172       30.5731846058       12.6732516533  MEMB      30              0.0000000000
      4553        58  DOPC      C25             6.5178574895       30.2528071109       10.7892503019  MEMB      30              0.0000000000
      4554        58  DOPC      H5R             7.0572862882       31.0678796583       10.2662105673  MEMB      30              0.0000000000
      4555        58  DOPC      H5S             5.6036342999       30.6778196728       11.2591616640  MEMB      30              0.0000000000
      4556        58  DOPC      C26             6.0705825851       29.2378568851        9.7302914478  MEMB      30              0.0000000000
      4557        58  DOPC      H6R             5.2884427625       29.7264759115        9.1099751490  MEMB      30              0.0000000000
      4558        58  DOPC      H6S             5.5903303590       28.3889355832       10.2374040542  MEMB      30              0.0000000000
      4559        58  DOPC      C27             7.1961892765       28.7540231394        8.8041566036  MEMB      30              0.0000000000
      4560        58  DOPC      H7R             8.1561631989       28.8948882718        9.3352578198  MEMB      30              0.0000000000
      4561        58  DOPC      H7S             7.2304041282       29.4325191873        7.9214147105  MEMB      30              0.0000000000
      4562        58  DOPC      C28             7.0825071655       27.2861325295        8.3054351795  MEMB      30              0.0000000000
      4563        58  DOPC      H8R             8.0278926744       27.0472160161        7.7713614717  MEMB      30              0.0000000000
      4564        58  DOPC      H8S             6.2782717267       27.2817846517        7.5413948523  MEMB      30              0.0000000000
      4565        58  DOPC      C29             6.8030208781       26.2117670320        9.3375107672  MEMB      30              0.0000000000
      4566        58  DOPC      H9R             6.6304397105       26.5869043149       10.3553147584  MEMB      30              0.0000000000
      4567        58  DOPC      C210            6.7916159030       24.8706826028        9.1806282853  MEMB      30              0.0000000000
      4568        58  DOPC      H10R            6.5670160697       24.2531120243       10.0647610121  MEMB      30              0.0000000000
      4569        58  DOPC      C211            7.0578526276       24.0691138159        7.9339195329  MEMB      30              0.0000000000
      4570        58  DOPC      H11R            7.5988291034       23.1381948633        8.2064219641  MEMB      30              0.0000000000
      4571        58  DOPC      H11S            7.7701303938       24.6210988183        7.2941492505  MEMB      30              0.0000000000
      4572        58  DOPC      C212            5.8257124088       23.6355204430        7.1085925797  MEMB      30              0.0000000000
      4573        58  DOPC      H12R            5.0331942875       23.2094745659        7.7591312173  MEMB      30              0.0000000000
      4574        58  DOPC      H12S            6.1518361108       22.8167975556        6.4223970723  MEMB      30              0.0000000000
      4575        58  DOPC      C213            5.2792735946       24.7618938809        6.2174528143  MEMB      30              0.0000000000
      4576        58  DOPC      H13R            4.8782047766       25.5704298224        6.8449482752  MEMB      30              0.0000000000
      4577        58  DOPC      H13S            4.4216316413       24.3621152024        5.6421389066  MEMB      30              0.0000000000
      4578        58  DOPC      C214            6.4202928693       25.3097151063        5.3392347933  MEMB      30              0.0000000000
      4579        58  DOPC      H14R            7.0749452380       24.4352552160        5.1563977568  MEMB      30              0.0000000000
      4580        58  DOPC      H14S            7.0024715419       26.0620063333        5.9090693016  MEMB      30              0.0000000000
      4581        58  DOPC      C215            6.1215271808       25.8420398235        3.9465598771  MEMB      30              0.0000000000
      4582        58  DOPC      H15R            7.0717841660       26.1503234245        3.4526240539  MEMB      30              0.0000000000
      4583        58  DOPC      H15S            5.5009783826       26.7671828492        4.0424065539  MEMB      30              0.0000000000
      4584        58  DOPC      C216            5.3688960680       24.8049332513        3.0990690896  MEMB      30              0.0000000000
      4585        58  DOPC      H16R            5.1730896334       25.2130138811        2.0936129644  MEMB      30              0.0000000000
      4586        58  DOPC      H16S            4.4528668224       24.7209974788        3.6789471226  MEMB      30              0.0000000000
      4587        58  DOPC      C217            5.6889530027       23.2979086791        3.0808071302  MEMB      30              0.0000000000
      4588        58  DOPC      H17R            5.4577701272       22.8821769475        4.0883508572  MEMB      30              0.0000000000
      4589        58  DOPC      H17S            6.7542048502       23.1417614686        2.8993869807  MEMB      30              0.0000000000
      4590        58  DOPC      C218            4.9195504269       22.4747037203        2.0306759331  MEMB      30              0.0000000000
      4591        58  DOPC      H18R            5.3964442376       21.4761073887        1.9213072267  MEMB      30              0.0000000000
      4592        58  DOPC      H18S            4.9453034595       22.9749096275        1.0372171313  MEMB      30              0.0000000000
      4593        58  DOPC      H18T            3.8588029346       22.3166201052        2.3202741917  MEMB      30              0.0000000000
      4594        58  DOPC      C33             3.4016466877       25.9413912796       10.3559608667  MEMB      30              0.0000000000
      4595        58  DOPC      H3X             2.7460324642       25.0653507121       10.5425189895  MEMB      30              0.0000000000
      4596        58  DOPC      H3Y             4.2732902123       25.5400102805        9.8066561499  MEMB      30              0.0000000000
      4597        58  DOPC      C34             2.6404042326       26.9277193893        9.4429072181  MEMB      30              0.0000000000
      4598        58  DOPC      H4X             2.2230992242       27.7666002280       10.0306435939  MEMB      30              0.0000000000
      4599        58  DOPC      H4Y             1.7902933062       26.3593446599        9.0015750267  MEMB      30              0.0000000000
      4600        58  DOPC      C35             3.4125215271       27.5014025633        8.2501825688  MEMB      30              0.0000000000
      4601        58  DOPC      H5X             4.3184350759       26.8910050975        8.1217283898  MEMB      30              0.0000000000
      4602        58  DOPC      H5Y             3.7456331136       28.5372880938        8.4571367646  MEMB      30              0.0000000000
      4603        58  DOPC      C36             2.5834209896       27.5019092489        6.9539960716  MEMB      30              0.0000000000
      4604        58  DOPC      H6X             3.2646674097       27.6381365008        6.0844235612  MEMB      30              0.0000000000
      4605        58  DOPC      H6Y             2.0752883470       26.5230602157        6.8512205888  MEMB      30              0.0000000000
      4606        58  DOPC      C37             1.5399313869       28.6225570908        6.9760859082  MEMB      30              0.0000000000
      4607        58  DOPC      H7X             0.8549794783       28.4692875294        7.8407427460  MEMB      30              0.0000000000
      4608        58  DOPC      H7Y             2.1040823278       29.5590378687        7.1565474228  MEMB      30              0.0000000000
      4609        58  DOPC      C38             0.6775262620       28.8310027466        5.7172735189  MEMB      30              0.0000000000
      4610        58  DOPC      H8X             0.0141570485       29.6938463524        5.9324073817  MEMB      30              0.0000000000
      4611        58  DOPC      H8Y            -0.0048045618       27.9716735460        5.5751297573  MEMB      30              0.0000000000
      4612        58  DOPC      C39             1.4983268526       29.1699636509        4.5039311447  MEMB      30              0.0000000000
      4613        58  DOPC      H9X             2.5573437685       29.3123815249        4.7635326757  MEMB      30              0.0000000000
      4614        58  DOPC      C310            1.1796964263       29.1998829513        3.1950369991  MEMB      30              0.0000000000
      4615        58  DOPC      H10X            1.9653331112       29.5271026164        2.4937797138  MEMB      30              0.0000000000
      4616        58  DOPC      C311           -0.1137886725       28.8899475017        2.4966746733  MEMB      30              0.0000000000
      4617        58  DOPC      H11X           -0.9395964981       29.5721659846        2.7779370511  MEMB      30              0.0000000000
      4618        58  DOPC      H11Y           -0.4098760401       27.8769279421        2.8397808907  MEMB      30              0.0000000000
      4619        58  DOPC      C312            0.0178029540       28.7460721089        0.9585937090  MEMB      30              0.0000000000
      4620        58  DOPC      H12X            0.9915465672       29.1333545671        0.5789543585  MEMB      30              0.0000000000
      4621        58  DOPC      H12Y           -0.7772516613       29.3266303322        0.4359314070  MEMB      30              0.0000000000
      4622        58  DOPC      C313           -0.1662288625       27.2547007092        0.5923432861  MEMB      30              0.0000000000
      4623        58  DOPC      H13X            0.4756131008       26.6094813195        1.1985125786  MEMB      30              0.0000000000
      4624        58  DOPC      H13Y           -1.1629818442       26.9917372333        0.9789088557  MEMB      30              0.0000000000
      4625        58  DOPC      C314           -0.1015686613       26.7969021720       -0.8716686205  MEMB      30              0.0000000000
      4626        58  DOPC      H14X            0.5019658514       25.8764113497       -1.0358677323  MEMB      30              0.0000000000
      4627        58  DOPC      H14Y           -1.1116660379       26.4396369105       -1.1204025056  MEMB      30              0.0000000000
      4628        58  DOPC      C315            0.2404528520       27.8814858622       -1.8778102572  MEMB      30              0.0000000000
      4629        58  DOPC      H15X            0.3754646604       28.8664634817       -1.3921079799  MEMB      30              0.0000000000
      4630        58  DOPC      H15Y           -0.6297033372       27.9747605560       -2.5430725567  MEMB      30              0.0000000000
      4631        58  DOPC      C316            1.4486335387       27.5606014896       -2.7439369208  MEMB      30              0.0000000000
      4632        58  DOPC      H16X            2.0312066803       26.8493243987       -2.1292605794  MEMB      30              0.0000000000
      4633        58  DOPC      H16Y            1.1288041447       27.0033793759       -3.6484527723  MEMB      30              0.0000000000
      4634        58  DOPC      C317            2.2469477373       28.8394436257       -3.0654458768  MEMB      30              0.0000000000
      4635        58  DOPC      H17X            1.7153962566       29.7027015318       -2.6004513724  MEMB      30              0.0000000000
      4636        58  DOPC      H17Y            3.2397603702       28.7749931263       -2.5674433181  MEMB      30              0.0000000000
      4637        58  DOPC      C318            2.4292178163       29.2330391260       -4.5357846537  MEMB      30              0.0000000000
      4638        58  DOPC      H18X            1.4563679170       29.4662532409       -5.0177864677  MEMB      30              0.0000000000
      4639        58  DOPC      H18Y            3.0468326842       30.1589718682       -4.5742619687  MEMB      30              0.0000000000
      4640        58  DOPC      H18Z            2.9494898731       28.4526130331       -5.1275103762  MEMB      30              0.0000000000
      4641        59  DOPC      N               1.6693811853      -27.3422337673       20.8215292335  MEMB      31              0.0000000000
      4642        59  DOPC      C12             0.3663264607      -28.1118326209       20.7753465705  MEMB      31              0.0000000000
      4643        59  DOPC      H12A           -0.0071554265      -28.2558876682       21.7800630536  MEMB      31              0.0000000000
      4644        59  DOPC      H12B            0.5736995481      -29.1198536064       20.4175248428  MEMB      31              0.0000000000
      4645        59  DOPC      C13             1.3791147162      -25.9178758237       21.1910957938  MEMB      31              0.0000000000
      4646        59  DOPC      H13A            2.2839838570      -25.3913926471       21.4676898232  MEMB      31              0.0000000000
      4647        59  DOPC      H13B            0.9363916224      -25.4158036651       20.3339277307  MEMB      31              0.0000000000
      4648        59  DOPC      H13C            0.6802748251      -25.8624732364       22.0161104158  MEMB      31              0.0000000000
      4649        59  DOPC      C14             2.3833376088      -27.3702423906       19.4987955011  MEMB      31              0.0000000000
      4650        59  DOPC      H14A            2.4175251304      -28.3660413233       19.0764660373  MEMB      31              0.0000000000
      4651        59  DOPC      H14B            1.8133715766      -26.7953993936       18.7642828919  MEMB      31              0.0000000000
      4652        59  DOPC      H14C            3.3814272570      -26.9592602730       19.5240819757  MEMB      31              0.0000000000
      4653        59  DOPC      C15             2.5405696565      -27.9367563260       21.8667088497  MEMB      31              0.0000000000
      4654        59  DOPC      H15A            2.0984621451      -27.8146484051       22.8425256436  MEMB      31              0.0000000000
      4655        59  DOPC      H15B            3.5013400738      -27.4155368010       21.8955939052  MEMB      31              0.0000000000
      4656        59  DOPC      H15C            2.7534212697      -28.9867455713       21.6839475826  MEMB      31              0.0000000000
      4657        59  DOPC      C11            -0.7652287927      -27.6195243138       19.8756491058  MEMB      31              0.0000000000
      4658        59  DOPC      H11A           -1.7182564618      -28.1116861415       20.1753191799  MEMB      31              0.0000000000
      4659        59  DOPC      H11B           -0.9077061603      -26.5149452689       19.9150115638  MEMB      31              0.0000000000
      4660        59  DOPC      P              -0.3566267088      -27.2400505136       17.3108501950  MEMB      31              0.0000000000
      4661        59  DOPC      O13            -0.0595067167      -28.1853010655       16.2129076691  MEMB      31              0.0000000000
      4662        59  DOPC      O14             0.5862941789      -26.1270567222       17.5902712800  MEMB      31              0.0000000000
      4663        59  DOPC      O12            -0.4316276452      -28.0985901700       18.6043534375  MEMB      31              0.0000000000
      4664        59  DOPC      O11            -1.8262284711      -26.5975080863       17.2277757499  MEMB      31              0.0000000000
      4665        59  DOPC      C1             -2.0410274696      -25.4534255199       16.3817585371  MEMB      31              0.0000000000
      4666        59  DOPC      HA             -1.1514252794      -24.7818441341       16.3182452874  MEMB      31              0.0000000000
      4667        59  DOPC      HB             -2.8782881538      -24.8498863119       16.7971651436  MEMB      31              0.0000000000
      4668        59  DOPC      C2             -2.4515483160      -25.9159636749       14.9655414517  MEMB      31              0.0000000000
      4669        59  DOPC      HS             -3.3950703181      -26.4893605201       15.1490477394  MEMB      31              0.0000000000
      4670        59  DOPC      O21            -1.4045626329      -26.7475630302       14.4484488555  MEMB      31              0.0000000000
      4671        59  DOPC      C21            -1.8529342344      -27.7150818016       13.6838067711  MEMB      31              0.0000000000
      4672        59  DOPC      O22            -3.0202733796      -27.8417618135       13.3442893266  MEMB      31              0.0000000000
      4673        59  DOPC      C22            -0.7032937608      -28.5501892881       13.1638575800  MEMB      31              0.0000000000
      4674        59  DOPC      H2R            -0.4311485082      -29.2452037307       13.9941193956  MEMB      31              0.0000000000
      4675        59  DOPC      H2S             0.1799837936      -27.9079944770       12.9954646683  MEMB      31              0.0000000000
      4676        59  DOPC      C3             -2.7364771520      -24.7792859914       13.9462535753  MEMB      31              0.0000000000
      4677        59  DOPC      HX             -2.8884622401      -23.8220865228       14.4866066243  MEMB      31              0.0000000000
      4678        59  DOPC      HY             -3.7054344877      -25.0243872558       13.4420982829  MEMB      31              0.0000000000
      4679        59  DOPC      O31            -1.6162035579      -24.6609099532       13.0314726368  MEMB      31              0.0000000000
      4680        59  DOPC      C31            -1.7883092506      -25.2417787691       11.8401996593  MEMB      31              0.0000000000
      4681        59  DOPC      O32            -2.8672430608      -25.5262865494       11.3584323547  MEMB      31              0.0000000000
      4682        59  DOPC      C32            -0.4335877047      -25.5839714055       11.1873861221  MEMB      31              0.0000000000
      4683        59  DOPC      H2X             0.3688756171      -25.0115559267       11.6842322956  MEMB      31              0.0000000000
      4684        59  DOPC      H2Y            -0.1902508593      -26.6421918909       11.3776967687  MEMB      31              0.0000000000
      4685        59  DOPC      C23            -1.1241796084      -29.3873427136       11.9292090113  MEMB      31              0.0000000000
      4686        59  DOPC      H3R            -1.8106076183      -30.1535057540       12.3290981144  MEMB      31              0.0000000000
      4687        59  DOPC      H3S            -0.2124901453      -29.9024970100       11.5720253528  MEMB      31              0.0000000000
      4688        59  DOPC      C24            -1.8397099027      -28.7612127514       10.6913907276  MEMB      31              0.0000000000
      4689        59  DOPC      H4R            -1.7993650515      -27.6649567853       10.7330377694  MEMB      31              0.0000000000
      4690        59  DOPC      H4S            -2.9242945773      -28.9925121993       10.7482986173  MEMB      31              0.0000000000
      4691        59  DOPC      C25            -1.2332353239      -29.2977840242        9.3603882961  MEMB      31              0.0000000000
      4692        59  DOPC      H5R            -0.9886504864      -30.3694674402        9.4821332673  MEMB      31              0.0000000000
      4693        59  DOPC      H5S            -0.2562017401      -28.7562658510        9.2966154581  MEMB      31              0.0000000000
      4694        59  DOPC      C26            -1.9406546257      -29.0787135859        7.9695529032  MEMB      31              0.0000000000
      4695        59  DOPC      H6R            -1.1730242587      -29.3498050947        7.2050320184  MEMB      31              0.0000000000
      4696        59  DOPC      H6S            -2.0834552684      -27.9951237522        7.9323358962  MEMB      31              0.0000000000
      4697        59  DOPC      C27            -3.2654147744      -29.8384169307        7.5474988437  MEMB      31              0.0000000000
      4698        59  DOPC      H7R            -3.8298123912      -30.0698895513        8.4612071105  MEMB      31              0.0000000000
      4699        59  DOPC      H7S            -2.8446998532      -30.7719661077        7.1216676786  MEMB      31              0.0000000000
      4700        59  DOPC      C28            -4.3059032261      -29.4274662886        6.3749156063  MEMB      31              0.0000000000
      4701        59  DOPC      H8R            -4.6891170696      -30.4451087334        6.1044771457  MEMB      31              0.0000000000
      4702        59  DOPC      H8S            -3.7359114753      -29.2288892947        5.4979988185  MEMB      31              0.0000000000
      4703        59  DOPC      C29            -5.6030442883      -28.5968628678        6.2716457109  MEMB      31              0.0000000000
      4704        59  DOPC      H9R            -6.3639415161      -29.0587222705        6.9145424667  MEMB      31              0.0000000000
      4705        59  DOPC      C210           -6.0441502108      -27.4569545447        5.6223997766  MEMB      31              0.0000000000
      4706        59  DOPC      H10R           -7.1137855130      -27.2407188366        5.7695160111  MEMB      31              0.0000000000
      4707        59  DOPC      C211           -5.4600954910      -26.4010597643        4.6679824978  MEMB      31              0.0000000000
      4708        59  DOPC      H11R           -4.3852652129      -26.5189190926        4.5536271171  MEMB      31              0.0000000000
      4709        59  DOPC      H11S           -5.5656341067      -25.4193605052        5.1870429664  MEMB      31              0.0000000000
      4710        59  DOPC      C212           -5.9862264924      -26.1075499307        3.2168753118  MEMB      31              0.0000000000
      4711        59  DOPC      H12R           -6.7929372732      -25.3447703907        3.2917638507  MEMB      31              0.0000000000
      4712        59  DOPC      H12S           -6.4570299585      -27.0158139934        2.8140662672  MEMB      31              0.0000000000
      4713        59  DOPC      C213           -4.9399136294      -25.5675553928        2.1845811995  MEMB      31              0.0000000000
      4714        59  DOPC      H13R           -4.4372879226      -24.6798476138        2.6172284941  MEMB      31              0.0000000000
      4715        59  DOPC      H13S           -5.4585476826      -25.2475568291        1.2587051280  MEMB      31              0.0000000000
      4716        59  DOPC      C214           -3.8486874523      -26.5546391347        1.7481633818  MEMB      31              0.0000000000
      4717        59  DOPC      H14R           -4.2089276648      -27.2543895361        0.9656137675  MEMB      31              0.0000000000
      4718        59  DOPC      H14S           -3.6990627389      -27.1352562061        2.6601012822  MEMB      31              0.0000000000
      4719        59  DOPC      C215           -2.4922814236      -25.9782191651        1.2988408498  MEMB      31              0.0000000000
      4720        59  DOPC      H15R           -1.6969463215      -26.7346981941        1.4931155800  MEMB      31              0.0000000000
      4721        59  DOPC      H15S           -2.2392405702      -25.0797945581        1.8928316601  MEMB      31              0.0000000000
      4722        59  DOPC      C216           -2.4780675922      -25.7028706308       -0.2089223672  MEMB      31              0.0000000000
      4723        59  DOPC      H16R           -3.1497649282      -24.8443504550       -0.4124991805  MEMB      31              0.0000000000
      4724        59  DOPC      H16S           -2.8995712639      -26.5931790851       -0.7201100748  MEMB      31              0.0000000000
      4725        59  DOPC      C217           -1.1058618765      -25.4371578364       -0.8344454818  MEMB      31              0.0000000000
      4726        59  DOPC      H17R           -1.0947120494      -25.8004822303       -1.8868898092  MEMB      31              0.0000000000
      4727        59  DOPC      H17S           -0.3310931301      -26.0185777206       -0.2994461081  MEMB      31              0.0000000000
      4728        59  DOPC      C218           -0.7579428424      -23.9546815991       -0.8298199319  MEMB      31              0.0000000000
      4729        59  DOPC      H18R            0.2381483426      -23.7754902195       -1.2876441050  MEMB      31              0.0000000000
      4730        59  DOPC      H18S           -0.7689677516      -23.6081202685        0.2185935503  MEMB      31              0.0000000000
      4731        59  DOPC      H18T           -1.4959675191      -23.3249931135       -1.3563729436  MEMB      31              0.0000000000
      4732        59  DOPC      C33            -0.4895067937      -25.3652964643        9.6560268074  MEMB      31              0.0000000000
      4733        59  DOPC      H3X            -1.3027834805      -24.6453208438        9.4150691589  MEMB      31              0.0000000000
      4734        59  DOPC      H3Y            -0.7747442125      -26.3172747374        9.1523467885  MEMB      31              0.0000000000
      4735        59  DOPC      C34             0.8111835816      -24.8244902987        9.0462323089  MEMB      31              0.0000000000
      4736        59  DOPC      H4X             1.1449740048      -25.5174206895        8.2458945784  MEMB      31              0.0000000000
      4737        59  DOPC      H4Y             1.6062288000      -24.8153477454        9.8254546552  MEMB      31              0.0000000000
      4738        59  DOPC      C35             0.6344614675      -23.4122342441        8.4628092352  MEMB      31              0.0000000000
      4739        59  DOPC      H5X             0.9517080069      -22.6925326514        9.2502533850  MEMB      31              0.0000000000
      4740        59  DOPC      H5Y            -0.4296433823      -23.2235702340        8.2538076669  MEMB      31              0.0000000000
      4741        59  DOPC      C36             1.4059213107      -23.0931383628        7.1742918171  MEMB      31              0.0000000000
      4742        59  DOPC      H6X             1.4305533308      -21.9905405581        7.0407703099  MEMB      31              0.0000000000
      4743        59  DOPC      H6Y             2.4524077701      -23.4334384681        7.3383238354  MEMB      31              0.0000000000
      4744        59  DOPC      C37             0.9149592723      -23.7408131324        5.8598680078  MEMB      31              0.0000000000
      4745        59  DOPC      H7X             1.6345112791      -23.4635300098        5.0641377553  MEMB      31              0.0000000000
      4746        59  DOPC      H7Y             0.9818180477      -24.8457888851        5.9980331445  MEMB      31              0.0000000000
      4747        59  DOPC      C38            -0.5028007336      -23.4447003469        5.2962328316  MEMB      31              0.0000000000
      4748        59  DOPC      H8X            -1.2187290783      -23.8696289131        6.0165829017  MEMB      31              0.0000000000
      4749        59  DOPC      H8Y            -0.5903538191      -24.1163514939        4.4099909419  MEMB      31              0.0000000000
      4750        59  DOPC      C39            -1.0354147856      -22.0731000007        4.9277158282  MEMB      31              0.0000000000
      4751        59  DOPC      H9X            -1.2487210182      -21.4088223383        5.7693033198  MEMB      31              0.0000000000
      4752        59  DOPC      C310           -1.2799323743      -21.5645770927        3.7063498819  MEMB      31              0.0000000000
      4753        59  DOPC      H10X           -1.7946959096      -20.5946622337        3.6068732160  MEMB      31              0.0000000000
      4754        59  DOPC      C311           -1.0229903452      -22.3046311210        2.4252508260  MEMB      31              0.0000000000
      4755        59  DOPC      H11X           -1.5907117143      -21.8695883469        1.5725580448  MEMB      31              0.0000000000
      4756        59  DOPC      H11Y           -1.2825604986      -23.3747016430        2.5032952145  MEMB      31              0.0000000000
      4757        59  DOPC      C312            0.4887044204      -22.0612213315        2.2689378873  MEMB      31              0.0000000000
      4758        59  DOPC      H12X            1.0032078812      -22.1293000746        3.2538061565  MEMB      31              0.0000000000
      4759        59  DOPC      H12Y            0.5769884443      -21.0168904555        1.8916035601  MEMB      31              0.0000000000
      4760        59  DOPC      C313            1.3749404519      -22.9687132822        1.4045956623  MEMB      31              0.0000000000
      4761        59  DOPC      H13X            1.1551559314      -22.7840009806        0.3392405582  MEMB      31              0.0000000000
      4762        59  DOPC      H13Y            2.4297646189      -22.6397083763        1.5481021621  MEMB      31              0.0000000000
      4763        59  DOPC      C314            1.3832400897      -24.4649712146        1.7445896357  MEMB      31              0.0000000000
      4764        59  DOPC      H14X            1.7478197529      -24.6139613329        2.7845510782  MEMB      31              0.0000000000
      4765        59  DOPC      H14Y            0.3572662550      -24.8835811599        1.6866886046  MEMB      31              0.0000000000
      4766        59  DOPC      C315            2.3083661982      -25.1924030347        0.7567016660  MEMB      31              0.0000000000
      4767        59  DOPC      H15X            3.3609236856      -24.9047929267        0.9748613600  MEMB      31              0.0000000000
      4768        59  DOPC      H15Y            2.0737904021      -24.8192582380       -0.2669798400  MEMB      31              0.0000000000
      4769        59  DOPC      C316            2.1818668170      -26.7216304507        0.7448978444  MEMB      31              0.0000000000
      4770        59  DOPC      H16X            2.5972621730      -27.1335142311        1.6895810642  MEMB      31              0.0000000000
      4771        59  DOPC      H16Y            1.1133051171      -27.0197126167        0.7035891127  MEMB      31              0.0000000000
      4772        59  DOPC      C317            2.9126076055      -27.3446836612       -0.4557730522  MEMB      31              0.0000000000
      4773        59  DOPC      H17X            2.6963493452      -28.4363099347       -0.4794908193  MEMB      31              0.0000000000
      4774        59  DOPC      H17Y            2.5048226493      -26.9093604310       -1.3979810231  MEMB      31              0.0000000000
      4775        59  DOPC      C318            4.4265698091      -27.1276368652       -0.4096464695  MEMB      31              0.0000000000
      4776        59  DOPC      H18X            4.6765228519      -26.0508430625       -0.5277926420  MEMB      31              0.0000000000
      4777        59  DOPC      H18Y            4.8271592097      -27.4677335943        0.5707635888  MEMB      31              0.0000000000
      4778        59  DOPC      H18Z            4.9377333353      -27.6954963859       -1.2151530580  MEMB      31              0.0000000000
      4779        60  DOPC      N             -25.2990136306       16.4986742237       21.0967755287  MEMB      32              0.0000000000
      4780        60  DOPC      C12           -26.0744932243       15.2611545707       20.6600023723  MEMB      32              0.0000000000
      4781        60  DOPC      H12A          -26.6762931841       14.8883902219       21.4832714576  MEMB      32              0.0000000000
      4782        60  DOPC      H12B          -25.3698048255       14.4646195963       20.4364052522  MEMB      32              0.0000000000
      4783        60  DOPC      C13           -24.2333838419       16.7601628603       20.0874578056  MEMB      32              0.0000000000
      4784        60  DOPC      H13A          -23.6430907550       15.8672288502       19.9023668331  MEMB      32              0.0000000000
      4785        60  DOPC      H13B          -24.7398909164       16.9607829079       19.1462862119  MEMB      32              0.0000000000
      4786        60  DOPC      H13C          -23.5573813666       17.5456700514       20.3778577755  MEMB      32              0.0000000000
      4787        60  DOPC      C14           -24.6815432892       16.2713900082       22.4301573443  MEMB      32              0.0000000000
      4788        60  DOPC      H14A          -24.2069968620       17.1560290310       22.8217987492  MEMB      32              0.0000000000
      4789        60  DOPC      H14B          -25.4353468935       15.9687959528       23.1491746448  MEMB      32              0.0000000000
      4790        60  DOPC      H14C          -23.9334975479       15.4832509137       22.4200538513  MEMB      32              0.0000000000
      4791        60  DOPC      C15           -26.2359403120       17.6581874802       21.1811192260  MEMB      32              0.0000000000
      4792        60  DOPC      H15A          -27.0258735002       17.4873239473       21.9159465155  MEMB      32              0.0000000000
      4793        60  DOPC      H15B          -26.7426158517       17.8111258661       20.2331292124  MEMB      32              0.0000000000
      4794        60  DOPC      H15C          -25.7543006137       18.5686292205       21.5013192735  MEMB      32              0.0000000000
      4795        60  DOPC      C11           -26.9715983477       15.4385653915       19.4132936693  MEMB      32              0.0000000000
      4796        60  DOPC      H11A          -27.5874116538       14.5095787959       19.3092805391  MEMB      32              0.0000000000
      4797        60  DOPC      H11B          -27.7109051819       16.2579228344       19.5579562152  MEMB      32              0.0000000000
      4798        60  DOPC      P             -26.1881444595       14.6903584118       17.0462341989  MEMB      32              0.0000000000
      4799        60  DOPC      O13           -27.5729963305       14.5983340281       16.6005335776  MEMB      32              0.0000000000
      4800        60  DOPC      O14           -25.5263844011       13.4484540882       17.4787515902  MEMB      32              0.0000000000
      4801        60  DOPC      O12           -26.1652828058       15.7258292812       18.2623808630  MEMB      32              0.0000000000
      4802        60  DOPC      O11           -25.3365154459       15.3512514058       15.9156211561  MEMB      32              0.0000000000
      4803        60  DOPC      C1            -24.4480914082       16.3882114048       16.2690686360  MEMB      32              0.0000000000
      4804        60  DOPC      HA            -23.6551590591       16.3569654584       15.4998164993  MEMB      32              0.0000000000
      4805        60  DOPC      HB            -23.9168213059       16.2037663120       17.2302349925  MEMB      32              0.0000000000
      4806        60  DOPC      C2            -25.1221880488       17.7964396140       16.3101556876  MEMB      32              0.0000000000
      4807        60  DOPC      HS            -25.5289149408       17.9319452981       17.3389975051  MEMB      32              0.0000000000
      4808        60  DOPC      O21           -26.1568445303       17.9241108963       15.3000104377  MEMB      32              0.0000000000
      4809        60  DOPC      C21           -27.2454926635       18.5851125719       15.6700005374  MEMB      32              0.0000000000
      4810        60  DOPC      O22           -27.4277987352       19.0900707199       16.7661862117  MEMB      32              0.0000000000
      4811        60  DOPC      C22           -28.2029037328       18.7443534418       14.4743391707  MEMB      32              0.0000000000
      4812        60  DOPC      H2R           -29.1129645876       19.2395847358       14.8783819335  MEMB      32              0.0000000000
      4813        60  DOPC      H2S           -28.4797365170       17.7435759454       14.0946927528  MEMB      32              0.0000000000
      4814        60  DOPC      C3            -23.9802167562       18.7919314589       16.0357416397  MEMB      32              0.0000000000
      4815        60  DOPC      HX            -23.1891095231       18.6351553395       16.8039058467  MEMB      32              0.0000000000
      4816        60  DOPC      HY            -24.3185084896       19.8365311663       16.1014427561  MEMB      32              0.0000000000
      4817        60  DOPC      O31           -23.5170938216       18.4200264232       14.7376028586  MEMB      32              0.0000000000
      4818        60  DOPC      C31           -22.6123098424       19.0414959226       14.0679823445  MEMB      32              0.0000000000
      4819        60  DOPC      O32           -22.0353821574       20.0711589876       14.3794674119  MEMB      32              0.0000000000
      4820        60  DOPC      C32           -22.4045259085       18.1830691603       12.7926184429  MEMB      32              0.0000000000
      4821        60  DOPC      H2X           -21.3238584237       18.1874163559       12.5775363058  MEMB      32              0.0000000000
      4822        60  DOPC      H2Y           -22.6717029203       17.1366468592       13.0579657606  MEMB      32              0.0000000000
      4823        60  DOPC      C23           -27.5771101621       19.6290577434       13.3618510239  MEMB      32              0.0000000000
      4824        60  DOPC      H3R           -26.7102642251       19.1107835466       12.8959974236  MEMB      32              0.0000000000
      4825        60  DOPC      H3S           -27.1992939179       20.5438027591       13.8692831147  MEMB      32              0.0000000000
      4826        60  DOPC      C24           -28.5477994937       20.1677105712       12.3012830197  MEMB      32              0.0000000000
      4827        60  DOPC      H4R           -28.0302269243       20.9887977634       11.7544506517  MEMB      32              0.0000000000
      4828        60  DOPC      H4S           -29.4191190078       20.6327575572       12.8199213855  MEMB      32              0.0000000000
      4829        60  DOPC      C25           -29.0569845850       19.1385504924       11.2832938408  MEMB      32              0.0000000000
      4830        60  DOPC      H5R           -29.6954692077       19.6833496835       10.5468007734  MEMB      32              0.0000000000
      4831        60  DOPC      H5S           -29.7070787983       18.4055498487       11.8104471091  MEMB      32              0.0000000000
      4832        60  DOPC      C26           -27.9778496764       18.3567940572       10.5089121405  MEMB      32              0.0000000000
      4833        60  DOPC      H6R           -27.5020227104       17.6055678755       11.1792703604  MEMB      32              0.0000000000
      4834        60  DOPC      H6S           -27.1581247867       19.0202226965       10.1610798482  MEMB      32              0.0000000000
      4835        60  DOPC      C27           -28.6070150957       17.6678608547        9.2867151141  MEMB      32              0.0000000000
      4836        60  DOPC      H7R           -29.1400827659       18.4286300301        8.6715053478  MEMB      32              0.0000000000
      4837        60  DOPC      H7S           -29.3766535075       16.9695145378        9.6621272750  MEMB      32              0.0000000000
      4838        60  DOPC      C28           -27.6134520063       16.9161205216        8.3850352672  MEMB      32              0.0000000000
      4839        60  DOPC      H8R           -26.7587059404       17.5947509883        8.1834336923  MEMB      32              0.0000000000
      4840        60  DOPC      H8S           -28.1139769577       16.7192831935        7.4086211505  MEMB      32              0.0000000000
      4841        60  DOPC      C29           -27.1995589562       15.6066627428        9.0094653874  MEMB      32              0.0000000000
      4842        60  DOPC      H9R           -28.0419131987       14.9299541578        9.2136428023  MEMB      32              0.0000000000
      4843        60  DOPC      C210          -25.9576290170       15.1565482413        9.2585715361  MEMB      32              0.0000000000
      4844        60  DOPC      H10R          -25.8484876051       14.1628455060        9.7184858234  MEMB      32              0.0000000000
      4845        60  DOPC      C211          -24.6516689651       15.8542595653        8.9691519446  MEMB      32              0.0000000000
      4846        60  DOPC      H11R          -23.9623866981       15.7295395436        9.8333301724  MEMB      32              0.0000000000
      4847        60  DOPC      H11S          -24.7750534161       16.9491595866        8.8169726899  MEMB      32              0.0000000000
      4848        60  DOPC      C212          -23.9718003542       15.2370545732        7.7297480554  MEMB      32              0.0000000000
      4849        60  DOPC      H12R          -23.8040698096       14.1509423225        7.9175023114  MEMB      32              0.0000000000
      4850        60  DOPC      H12S          -22.9721500889       15.7027741231        7.5862398046  MEMB      32              0.0000000000
      4851        60  DOPC      C213          -24.7758497914       15.3807440168        6.4271188238  MEMB      32              0.0000000000
      4852        60  DOPC      H13R          -25.7869329526       14.9411905010        6.5705829217  MEMB      32              0.0000000000
      4853        60  DOPC      H13S          -24.2776166579       14.7824430525        5.6315660530  MEMB      32              0.0000000000
      4854        60  DOPC      C214          -24.9362844477       16.8265967277        5.9319109371  MEMB      32              0.0000000000
      4855        60  DOPC      H14R          -23.9394429206       17.2321009317        5.6557405327  MEMB      32              0.0000000000
      4856        60  DOPC      H14S          -25.2978405637       17.4770758182        6.7533882222  MEMB      32              0.0000000000
      4857        60  DOPC      C215          -25.9405793099       16.9098537456        4.7677218196  MEMB      32              0.0000000000
      4858        60  DOPC      H15R          -25.9923565795       17.9155654168        4.3224852154  MEMB      32              0.0000000000
      4859        60  DOPC      H15S          -26.9529395920       16.6692520833        5.1502017335  MEMB      32              0.0000000000
      4860        60  DOPC      C216          -25.5841727451       16.0717644757        3.5465463461  MEMB      32              0.0000000000
      4861        60  DOPC      H16R          -26.3353078892       16.2847929738        2.7485001882  MEMB      32              0.0000000000
      4862        60  DOPC      H16S          -25.6339323197       14.9865030801        3.7733979156  MEMB      32              0.0000000000
      4863        60  DOPC      C217          -24.2047096768       16.4706186854        3.0308744229  MEMB      32              0.0000000000
      4864        60  DOPC      H17R          -23.4469915704       16.4451205554        3.8432144794  MEMB      32              0.0000000000
      4865        60  DOPC      H17S          -24.2502297883       17.5236958135        2.6729809735  MEMB      32              0.0000000000
      4866        60  DOPC      C218          -23.7155052662       15.5487554098        1.9373583870  MEMB      32              0.0000000000
      4867        60  DOPC      H18R          -22.7924236535       15.9711341508        1.4885961331  MEMB      32              0.0000000000
      4868        60  DOPC      H18S          -24.4830010119       15.4305075411        1.1418497038  MEMB      32              0.0000000000
      4869        60  DOPC      H18T          -23.4792258296       14.5476124820        2.3607886469  MEMB      32              0.0000000000
      4870        60  DOPC      C33           -23.1792169606       18.5692718095       11.5014635159  MEMB      32              0.0000000000
      4871        60  DOPC      H3X           -24.0786788787       19.1828079148       11.7247628135  MEMB      32              0.0000000000
      4872        60  DOPC      H3Y           -23.5399207960       17.6258994519       11.0260339579  MEMB      32              0.0000000000
      4873        60  DOPC      C34           -22.2346882733       19.2894251437       10.5327210019  MEMB      32              0.0000000000
      4874        60  DOPC      H4X           -21.2513712629       18.7631833265       10.5192271444  MEMB      32              0.0000000000
      4875        60  DOPC      H4Y           -22.0601745524       20.3001032148       10.9669877025  MEMB      32              0.0000000000
      4876        60  DOPC      C35           -22.6793264243       19.4623878705        9.0675735693  MEMB      32              0.0000000000
      4877        60  DOPC      H5X           -23.7345222153       19.7995234587        9.0144329794  MEMB      32              0.0000000000
      4878        60  DOPC      H5Y           -22.6108399058       18.4992125362        8.5076873823  MEMB      32              0.0000000000
      4879        60  DOPC      C36           -21.7346665462       20.4828426429        8.4134125043  MEMB      32              0.0000000000
      4880        60  DOPC      H6X           -21.3066438518       21.1413934111        9.1935188507  MEMB      32              0.0000000000
      4881        60  DOPC      H6Y           -20.8867356127       19.9158088681        7.9659636003  MEMB      32              0.0000000000
      4882        60  DOPC      C37           -22.2700746274       21.3854158991        7.2907878535  MEMB      32              0.0000000000
      4883        60  DOPC      H7X           -21.3860640233       21.9724461810        6.9832360487  MEMB      32              0.0000000000
      4884        60  DOPC      H7Y           -22.5458435300       20.6754916368        6.5006138674  MEMB      32              0.0000000000
      4885        60  DOPC      C38           -23.4506695961       22.3526591982        7.6182462325  MEMB      32              0.0000000000
      4886        60  DOPC      H8X           -23.0950375156       22.7424033368        8.6051553023  MEMB      32              0.0000000000
      4887        60  DOPC      H8Y           -24.2655551268       21.6312256802        7.7963087073  MEMB      32              0.0000000000
      4888        60  DOPC      C39           -24.0003694301       23.6305530693        6.9452955173  MEMB      32              0.0000000000
      4889        60  DOPC      H9X           -23.7442475113       24.4348631662        7.6242750588  MEMB      32              0.0000000000
      4890        60  DOPC      C310          -24.7376865864       24.1227738065        5.8898795339  MEMB      32              0.0000000000
      4891        60  DOPC      H10X          -24.8272330025       25.2126052587        5.9733095785  MEMB      32              0.0000000000
      4892        60  DOPC      C311          -25.5325322502       23.7156451609        4.6221167768  MEMB      32              0.0000000000
      4893        60  DOPC      H11X          -26.1351724042       24.6162771585        4.4912267994  MEMB      32              0.0000000000
      4894        60  DOPC      H11Y          -26.3335068927       22.9963941099        4.7565668264  MEMB      32              0.0000000000
      4895        60  DOPC      C312          -25.0959328106       23.6029959324        3.1203930545  MEMB      32              0.0000000000
      4896        60  DOPC      H12X          -24.0225461500       23.4553440616        3.0559271816  MEMB      32              0.0000000000
      4897        60  DOPC      H12Y          -25.2780150243       24.5694945627        2.6169828044  MEMB      32              0.0000000000
      4898        60  DOPC      C313          -25.6548386179       22.4909600905        2.2156102513  MEMB      32              0.0000000000
      4899        60  DOPC      H13X          -25.9499495409       21.5759337054        2.7619205731  MEMB      32              0.0000000000
      4900        60  DOPC      H13Y          -26.5676251599       22.7387316126        1.6751323994  MEMB      32              0.0000000000
      4901        60  DOPC      C314          -24.6906186879       22.2534198384        1.0649753971  MEMB      32              0.0000000000
      4902        60  DOPC      H14X          -25.1400545512       22.6017209472        0.1125855581  MEMB      32              0.0000000000
      4903        60  DOPC      H14Y          -23.7536608838       22.8426928506        1.1888778645  MEMB      32              0.0000000000
      4904        60  DOPC      C315          -24.3747111737       20.7888681187        0.9679403793  MEMB      32              0.0000000000
      4905        60  DOPC      H15X          -25.2160508612       20.3170698952        0.4121435160  MEMB      32              0.0000000000
      4906        60  DOPC      H15Y          -24.3496056608       20.3282264844        1.9809515182  MEMB      32              0.0000000000
      4907        60  DOPC      C316          -23.0120388130       20.5902434431        0.3251264481  MEMB      32              0.0000000000
      4908        60  DOPC      H16X          -23.0555552773       20.9482393929       -0.7257527971  MEMB      32              0.0000000000
      4909        60  DOPC      H16Y          -22.2513869631       21.2083389685        0.8546687365  MEMB      32              0.0000000000
      4910        60  DOPC      C317          -22.6500529455       19.1163863438        0.3443126043  MEMB      32              0.0000000000
      4911        60  DOPC      H17X          -21.8114230790       18.9428773422       -0.3576014507  MEMB      32              0.0000000000
      4912        60  DOPC      H17Y          -22.3451623730       18.8227804109        1.3751279296  MEMB      32              0.0000000000
      4913        60  DOPC      C318          -23.8308471882       18.2811627213       -0.1192306154  MEMB      32              0.0000000000
      4914        60  DOPC      H18X          -24.5690448199       18.1270619163        0.6952456461  MEMB      32              0.0000000000
      4915        60  DOPC      H18Y          -24.3461147620       18.8497726269       -0.9237907130  MEMB      32              0.0000000000
      4916        60  DOPC      H18Z          -23.5132827703       17.2982672565       -0.5220804431  MEMB      32              0.0000000000
      4917        61  DOPC      N             -13.5941757713      -23.1521127847       20.7857761185  MEMB      33              0.0000000000
      4918        61  DOPC      C12           -13.9464813027      -24.5988993155       20.4498679840  MEMB      33              0.0000000000
      4919        61  DOPC      H12A          -13.9842943569      -25.1893538741       21.3495155575  MEMB      33              0.0000000000
      4920        61  DOPC      H12B          -13.1532995102      -25.0011062061       19.8150044311  MEMB      33              0.0000000000
      4921        61  DOPC      C13           -14.8314364466      -22.3799507962       21.1731576101  MEMB      33              0.0000000000
      4922        61  DOPC      H13A          -15.4617618073      -22.2739514182       20.2803559024  MEMB      33              0.0000000000
      4923        61  DOPC      H13B          -15.4627947772      -22.9180518976       21.8676709803  MEMB      33              0.0000000000
      4924        61  DOPC      H13C          -14.6185595184      -21.3750309966       21.5126932973  MEMB      33              0.0000000000
      4925        61  DOPC      C14           -13.0980705928      -22.5253535886       19.5283854102  MEMB      33              0.0000000000
      4926        61  DOPC      H14A          -13.8783244319      -22.6495289202       18.7667677402  MEMB      33              0.0000000000
      4927        61  DOPC      H14B          -12.9087808027      -21.4715813783       19.6504513857  MEMB      33              0.0000000000
      4928        61  DOPC      H14C          -12.2304447319      -23.0430825949       19.1361734902  MEMB      33              0.0000000000
      4929        61  DOPC      C15           -12.4821782759      -23.0491795567       21.7832994570  MEMB      33              0.0000000000
      4930        61  DOPC      H15A          -11.6609980715      -23.6957054488       21.4790033871  MEMB      33              0.0000000000
      4931        61  DOPC      H15B          -12.7714506354      -23.3136061996       22.7875401914  MEMB      33              0.0000000000
      4932        61  DOPC      H15C          -12.0862485854      -22.0313492472       21.8110270518  MEMB      33              0.0000000000
      4933        61  DOPC      C11           -15.2288422675      -24.8212636559       19.6168006349  MEMB      33              0.0000000000
      4934        61  DOPC      H11A          -15.3954067498      -25.9127318304       19.4651570720  MEMB      33              0.0000000000
      4935        61  DOPC      H11B          -16.1271473140      -24.4044714589       20.1289706296  MEMB      33              0.0000000000
      4936        61  DOPC      P             -16.0524484335      -24.2230568969       17.1968825426  MEMB      33              0.0000000000
      4937        61  DOPC      O13           -17.2298154851      -23.4620310516       17.6615577378  MEMB      33              0.0000000000
      4938        61  DOPC      O14           -16.2795622997      -25.6050551032       16.7335821077  MEMB      33              0.0000000000
      4939        61  DOPC      O12           -15.0131476695      -24.2019842141       18.3687178474  MEMB      33              0.0000000000
      4940        61  DOPC      O11           -15.2620448381      -23.3724812196       16.1078655581  MEMB      33              0.0000000000
      4941        61  DOPC      C1            -14.0835812388      -22.6235023805       16.4460794031  MEMB      33              0.0000000000
      4942        61  DOPC      HA            -13.4006862206      -23.1999424432       17.0949202028  MEMB      33              0.0000000000
      4943        61  DOPC      HB            -14.3800973917      -21.6990716578       16.9910395471  MEMB      33              0.0000000000
      4944        61  DOPC      C2            -13.1989335278      -22.2235167018       15.2271201030  MEMB      33              0.0000000000
      4945        61  DOPC      HS            -12.8693543852      -21.1691903229       15.4053805868  MEMB      33              0.0000000000
      4946        61  DOPC      O21           -13.9460740871      -22.4069372890       14.0362441822  MEMB      33              0.0000000000
      4947        61  DOPC      C21           -14.4356293804      -21.3114483170       13.5403887870  MEMB      33              0.0000000000
      4948        61  DOPC      O22           -14.0604857810      -20.1787089557       13.8062746925  MEMB      33              0.0000000000
      4949        61  DOPC      C22           -15.3144883011      -21.7929928323       12.3873468532  MEMB      33              0.0000000000
      4950        61  DOPC      H2R           -16.1934563052      -21.1419705587       12.2792439080  MEMB      33              0.0000000000
      4951        61  DOPC      H2S           -15.7139972459      -22.8018844751       12.6359773249  MEMB      33              0.0000000000
      4952        61  DOPC      C3            -11.9035500992      -23.0600934942       15.0271071549  MEMB      33              0.0000000000
      4953        61  DOPC      HX            -11.2866273173      -23.0557486493       15.9508232527  MEMB      33              0.0000000000
      4954        61  DOPC      HY            -11.3262785143      -22.5292240185       14.2312377609  MEMB      33              0.0000000000
      4955        61  DOPC      O31           -12.1918811089      -24.3838184726       14.5369422337  MEMB      33              0.0000000000
      4956        61  DOPC      C31           -12.6547880145      -25.2599807816       15.4508310210  MEMB      33              0.0000000000
      4957        61  DOPC      O32           -12.3603743035      -25.1937429262       16.6354062227  MEMB      33              0.0000000000
      4958        61  DOPC      C32           -13.6863198181      -26.1949475194       14.8066593515  MEMB      33              0.0000000000
      4959        61  DOPC      H2X           -14.0908384334      -26.8181300129       15.6375478299  MEMB      33              0.0000000000
      4960        61  DOPC      H2Y           -14.5194186177      -25.5726496472       14.4210117967  MEMB      33              0.0000000000
      4961        61  DOPC      C23           -14.4982346542      -21.8978515799       11.0784390390  MEMB      33              0.0000000000
      4962        61  DOPC      H3R           -15.2527904818      -21.7733519187       10.2719467776  MEMB      33              0.0000000000
      4963        61  DOPC      H3S           -14.0758289451      -22.9205884152       10.9821841538  MEMB      33              0.0000000000
      4964        61  DOPC      C24           -13.3464540411      -20.8701671223       10.9748185700  MEMB      33              0.0000000000
      4965        61  DOPC      H4R           -12.5758492803      -21.0675150007       11.7530749164  MEMB      33              0.0000000000
      4966        61  DOPC      H4S           -13.7699805658      -19.8688930789       11.2027934907  MEMB      33              0.0000000000
      4967        61  DOPC      C25           -12.6382445810      -20.7697060420        9.6156043342  MEMB      33              0.0000000000
      4968        61  DOPC      H5R           -11.6802653414      -21.3341044124        9.6219207603  MEMB      33              0.0000000000
      4969        61  DOPC      H5S           -12.3970480534      -19.6906745980        9.4587318534  MEMB      33              0.0000000000
      4970        61  DOPC      C26           -13.5370988360      -21.2543889637        8.4833081581  MEMB      33              0.0000000000
      4971        61  DOPC      H6R           -14.5415099656      -20.8142624688        8.6651033719  MEMB      33              0.0000000000
      4972        61  DOPC      H6S           -13.6281124880      -22.3631954114        8.5142375065  MEMB      33              0.0000000000
      4973        61  DOPC      C27           -13.1536995414      -20.7772164729        7.0883062520  MEMB      33              0.0000000000
      4974        61  DOPC      H7R           -12.4046295422      -21.4661238918        6.6558552529  MEMB      33              0.0000000000
      4975        61  DOPC      H7S           -12.6702728273      -19.7819688577        7.1649259199  MEMB      33              0.0000000000
      4976        61  DOPC      C28           -14.4084553302      -20.6621876935        6.2002723131  MEMB      33              0.0000000000
      4977        61  DOPC      H8R           -14.1453780142      -20.1123541152        5.2710619283  MEMB      33              0.0000000000
      4978        61  DOPC      H8S           -15.1582751340      -20.0297512353        6.7170808802  MEMB      33              0.0000000000
      4979        61  DOPC      C29           -14.9605304649      -22.0300348080        5.8792998695  MEMB      33              0.0000000000
      4980        61  DOPC      H9R           -14.2703000120      -22.8599906795        6.0920532403  MEMB      33              0.0000000000
      4981        61  DOPC      C210          -16.1619622777      -22.3011078176        5.3443164327  MEMB      33              0.0000000000
      4982        61  DOPC      H10R          -16.4218806996      -23.3469858062        5.1175845739  MEMB      33              0.0000000000
      4983        61  DOPC      C211          -17.1984363553      -21.2778804896        4.9585236311  MEMB      33              0.0000000000
      4984        61  DOPC      H11R          -17.3712012820      -20.5689930088        5.7966916901  MEMB      33              0.0000000000
      4985        61  DOPC      H11S          -18.1761299353      -21.7787483123        4.7729295783  MEMB      33              0.0000000000
      4986        61  DOPC      C212          -16.8151502807      -20.4692349602        3.6987457437  MEMB      33              0.0000000000
      4987        61  DOPC      H12R          -15.8621561956      -19.9204775186        3.8583551879  MEMB      33              0.0000000000
      4988        61  DOPC      H12S          -17.6146705429      -19.7084040554        3.5387233783  MEMB      33              0.0000000000
      4989        61  DOPC      C213          -16.7339058000      -21.3369776236        2.4368046926  MEMB      33              0.0000000000
      4990        61  DOPC      H13R          -17.3896861382      -20.9205186601        1.6427918644  MEMB      33              0.0000000000
      4991        61  DOPC      H13S          -17.1515577164      -22.3345683773        2.7077506773  MEMB      33              0.0000000000
      4992        61  DOPC      C214          -15.3284564400      -21.5639409894        1.8461433454  MEMB      33              0.0000000000
      4993        61  DOPC      H14R          -14.5492627066      -21.3725997917        2.6131662904  MEMB      33              0.0000000000
      4994        61  DOPC      H14S          -15.1679045522      -20.8483191014        1.0110707109  MEMB      33              0.0000000000
      4995        61  DOPC      C215          -15.2298062013      -23.0178474390        1.3545357773  MEMB      33              0.0000000000
      4996        61  DOPC      H15R          -16.2343638917      -23.2344295929        0.9192528492  MEMB      33              0.0000000000
      4997        61  DOPC      H15S          -15.0911523717      -23.6893884362        2.2299202779  MEMB      33              0.0000000000
      4998        61  DOPC      C216          -14.2260152293      -23.3691574185        0.2434630483  MEMB      33              0.0000000000
      4999        61  DOPC      H16R          -13.7460590054      -22.4376541473       -0.1296264324  MEMB      33              0.0000000000
      5000        61  DOPC      H16S          -14.7877608142      -23.8271529546       -0.5986878413  MEMB      33              0.0000000000
      5001        61  DOPC      C217          -13.1316896686      -24.3846496380        0.6166803867  MEMB      33              0.0000000000
      5002        61  DOPC      H17R          -12.6466595083      -24.0234718335        1.5362584584  MEMB      33              0.0000000000
      5003        61  DOPC      H17S          -12.3885685760      -24.3717255150       -0.2050697905  MEMB      33              0.0000000000
      5004        61  DOPC      C218          -13.5041583511      -25.8518140930        0.8146058922  MEMB      33              0.0000000000
      5005        61  DOPC      H18R          -12.5906675850      -26.4873338001        0.8133937145  MEMB      33              0.0000000000
      5006        61  DOPC      H18S          -14.1513363578      -26.2110385318       -0.0095189529  MEMB      33              0.0000000000
      5007        61  DOPC      H18T          -14.0110746324      -26.0017615033        1.7884813113  MEMB      33              0.0000000000
      5008        61  DOPC      C33           -13.1593815780      -27.1531077872       13.7089860752  MEMB      33              0.0000000000
      5009        61  DOPC      H3X           -13.9259862378      -27.9457460739       13.5447978081  MEMB      33              0.0000000000
      5010        61  DOPC      H3Y           -12.2422701179      -27.6622202217       14.0930280597  MEMB      33              0.0000000000
      5011        61  DOPC      C34           -12.8264523435      -26.5316696746       12.3415297719  MEMB      33              0.0000000000
      5012        61  DOPC      H4X           -12.2028184031      -27.3055450140       11.8419935372  MEMB      33              0.0000000000
      5013        61  DOPC      H4Y           -12.1978455716      -25.6241529790       12.4468042589  MEMB      33              0.0000000000
      5014        61  DOPC      C35           -13.9951966867      -26.2578247346       11.3735764003  MEMB      33              0.0000000000
      5015        61  DOPC      H5X           -14.1914032468      -25.1624770348       11.3504494470  MEMB      33              0.0000000000
      5016        61  DOPC      H5Y           -14.9231218584      -26.7526901931       11.7377749011  MEMB      33              0.0000000000
      5017        61  DOPC      C36           -13.6524607910      -26.7606629739        9.9548459565  MEMB      33              0.0000000000
      5018        61  DOPC      H6X           -13.4736506751      -27.8576804128       10.0244022820  MEMB      33              0.0000000000
      5019        61  DOPC      H6Y           -14.5067108970      -26.6045511084        9.2615290475  MEMB      33              0.0000000000
      5020        61  DOPC      C37           -12.3833135448      -26.0829807317        9.3982865650  MEMB      33              0.0000000000
      5021        61  DOPC      H7X           -12.5356043590      -24.9809694947        9.3949834038  MEMB      33              0.0000000000
      5022        61  DOPC      H7Y           -11.5516892047      -26.2875074662       10.1107785817  MEMB      33              0.0000000000
      5023        61  DOPC      C38           -11.9578276398      -26.5422504183        7.9875165240  MEMB      33              0.0000000000
      5024        61  DOPC      H8X           -12.4760621535      -25.8912718337        7.2472759634  MEMB      33              0.0000000000
      5025        61  DOPC      H8Y           -12.3412161338      -27.5706844353        7.8054654954  MEMB      33              0.0000000000
      5026        61  DOPC      C39           -10.4484008633      -26.5401821339        7.8289676683  MEMB      33              0.0000000000
      5027        61  DOPC      H9X            -9.9120933207      -27.3165994267        8.3882661884  MEMB      33              0.0000000000
      5028        61  DOPC      C310           -9.7168588459      -25.6968336128        7.0913231500  MEMB      33              0.0000000000
      5029        61  DOPC      H10X           -8.6200820957      -25.7897291070        7.0628916562  MEMB      33              0.0000000000
      5030        61  DOPC      C311          -10.2995450757      -24.5877170264        6.2829578095  MEMB      33              0.0000000000
      5031        61  DOPC      H11X           -9.5248785433      -23.8175800455        6.0712936475  MEMB      33              0.0000000000
      5032        61  DOPC      H11Y          -11.1120316174      -24.0785234469        6.8560317676  MEMB      33              0.0000000000
      5033        61  DOPC      C312          -10.9039544832      -25.0870594474        4.9666620439  MEMB      33              0.0000000000
      5034        61  DOPC      H12X          -11.4880022267      -26.0251695126        5.1040145140  MEMB      33              0.0000000000
      5035        61  DOPC      H12Y          -10.0937264133      -25.2937594300        4.2307688974  MEMB      33              0.0000000000
      5036        61  DOPC      C313          -11.8424474192      -24.0233220591        4.4168160780  MEMB      33              0.0000000000
      5037        61  DOPC      H13X          -12.1309850919      -24.3122103437        3.3910827547  MEMB      33              0.0000000000
      5038        61  DOPC      H13Y          -12.7760174736      -23.9912383619        5.0212035704  MEMB      33              0.0000000000
      5039        61  DOPC      C314          -11.1790880701      -22.6455767555        4.4254445607  MEMB      33              0.0000000000
      5040        61  DOPC      H14X          -11.0153112797      -22.2863513583        5.4627157277  MEMB      33              0.0000000000
      5041        61  DOPC      H14Y          -10.1800370189      -22.7135348481        3.9443050633  MEMB      33              0.0000000000
      5042        61  DOPC      C315          -12.0312139123      -21.6233237037        3.7066490410  MEMB      33              0.0000000000
      5043        61  DOPC      H15X          -12.9478000564      -21.4447637480        4.2879443539  MEMB      33              0.0000000000
      5044        61  DOPC      H15Y          -12.3876049149      -22.0503648248        2.7514978866  MEMB      33              0.0000000000
      5045        61  DOPC      C316          -11.3053872524      -20.2995452246        3.4977493286  MEMB      33              0.0000000000
      5046        61  DOPC      H16X          -11.0167147779      -19.8847429585        4.4903156491  MEMB      33              0.0000000000
      5047        61  DOPC      H16Y          -10.3776497931      -20.4612133316        2.9039887850  MEMB      33              0.0000000000
      5048        61  DOPC      C317          -12.2234772619      -19.3173897412        2.7812853308  MEMB      33              0.0000000000
      5049        61  DOPC      H17X          -13.2033798004      -19.2975037761        3.3108729351  MEMB      33              0.0000000000
      5050        61  DOPC      H17Y          -11.7842604579      -18.3043452080        2.8656905607  MEMB      33              0.0000000000
      5051        61  DOPC      C318          -12.4482549076      -19.6791440278        1.3125251628  MEMB      33              0.0000000000
      5052        61  DOPC      H18X          -13.2944801453      -19.1033667705        0.8843600931  MEMB      33              0.0000000000
      5053        61  DOPC      H18Y          -11.5305117704      -19.4664316772        0.7281413640  MEMB      33              0.0000000000
      5054        61  DOPC      H18Z          -12.6830274520      -20.7557247948        1.1892397883  MEMB      33              0.0000000000
      5055        62  DOPC      N              29.0099237985        6.7777992788       20.1861251648  MEMB      34              0.0000000000
      5056        62  DOPC      C12            27.6618336815        7.3793256857       20.5212482497  MEMB      34              0.0000000000
      5057        62  DOPC      H12A           27.8089897896        8.0509525651       21.3624851336  MEMB      34              0.0000000000
      5058        62  DOPC      H12B           27.0109150056        6.5675321362       20.8035781454  MEMB      34              0.0000000000
      5059        62  DOPC      C13            28.8910498110        6.0872187739       18.8907369746  MEMB      34              0.0000000000
      5060        62  DOPC      H13A           28.2273909796        5.2431978954       18.8998565363  MEMB      34              0.0000000000
      5061        62  DOPC      H13B           28.5608033160        6.7956668246       18.1165938589  MEMB      34              0.0000000000
      5062        62  DOPC      H13C           29.8813043681        5.7956346488       18.5674496599  MEMB      34              0.0000000000
      5063        62  DOPC      C14            29.4968116273        5.8807337089       21.2723281439  MEMB      34              0.0000000000
      5064        62  DOPC      H14A           28.7804518330        5.1371769228       21.5610019559  MEMB      34              0.0000000000
      5065        62  DOPC      H14B           30.4412676393        5.3959564384       21.0126113733  MEMB      34              0.0000000000
      5066        62  DOPC      H14C           29.7355405779        6.4732344031       22.1606217397  MEMB      34              0.0000000000
      5067        62  DOPC      C15            30.0778746532        7.8166271098       20.0325709213  MEMB      34              0.0000000000
      5068        62  DOPC      H15A           31.0215443732        7.3994646929       19.6973644314  MEMB      34              0.0000000000
      5069        62  DOPC      H15B           30.2907813310        8.3025442870       20.9873739862  MEMB      34              0.0000000000
      5070        62  DOPC      H15C           29.7361170867        8.5985759424       19.3592681699  MEMB      34              0.0000000000
      5071        62  DOPC      C11            26.9471773406        8.2055281705       19.4251272087  MEMB      34              0.0000000000
      5072        62  DOPC      H11A           26.7717901425        7.6186347633       18.4911429880  MEMB      34              0.0000000000
      5073        62  DOPC      H11B           25.9429989953        8.5215899233       19.7940090993  MEMB      34              0.0000000000
      5074        62  DOPC      P              27.4560065722       10.3977389173       18.0869874206  MEMB      34              0.0000000000
      5075        62  DOPC      O13            27.5798576357        9.6394923446       16.8220930461  MEMB      34              0.0000000000
      5076        62  DOPC      O14            28.4045550666       11.4930302647       18.4123651494  MEMB      34              0.0000000000
      5077        62  DOPC      O12            27.7566936553        9.3368287159       19.1868506276  MEMB      34              0.0000000000
      5078        62  DOPC      O11            25.9551606001       10.7995171348       18.4401831531  MEMB      34              0.0000000000
      5079        62  DOPC      C1             25.2272403302       11.7986757090       17.7316296776  MEMB      34              0.0000000000
      5080        62  DOPC      HA             25.8235419597       12.7193257542       17.5361058473  MEMB      34              0.0000000000
      5081        62  DOPC      HB             24.3618359054       12.0961335683       18.3643455357  MEMB      34              0.0000000000
      5082        62  DOPC      C2             24.6890329516       11.2150218971       16.4121934170  MEMB      34              0.0000000000
      5083        62  DOPC      HS             24.3390749977       10.1835138806       16.6596369471  MEMB      34              0.0000000000
      5084        62  DOPC      O21            25.8052416165       11.1941525793       15.4875202607  MEMB      34              0.0000000000
      5085        62  DOPC      C21            25.6233762811       10.3074254491       14.5174685693  MEMB      34              0.0000000000
      5086        62  DOPC      O22            24.5287560076        9.9168212378       14.1604720352  MEMB      34              0.0000000000
      5087        62  DOPC      C22            26.9177754721        9.8096304906       13.8784313076  MEMB      34              0.0000000000
      5088        62  DOPC      H2R            27.7957312590       10.2137344684       14.4182142812  MEMB      34              0.0000000000
      5089        62  DOPC      H2S            26.9037057825       10.1774920305       12.8355048941  MEMB      34              0.0000000000
      5090        62  DOPC      C3             23.4695306728       12.0224233130       15.8576657300  MEMB      34              0.0000000000
      5091        62  DOPC      HX             22.9641332807       12.5501025685       16.6946211763  MEMB      34              0.0000000000
      5092        62  DOPC      HY             22.7366112072       11.2679722818       15.4811007596  MEMB      34              0.0000000000
      5093        62  DOPC      O31            23.8786780566       12.9766708697       14.8608755689  MEMB      34              0.0000000000
      5094        62  DOPC      C31            23.3424972272       12.8346649573       13.6570486759  MEMB      34              0.0000000000
      5095        62  DOPC      O32            22.3908449433       12.1329467980       13.3707821606  MEMB      34              0.0000000000
      5096        62  DOPC      C32            24.0829319034       13.7347960569       12.6665159510  MEMB      34              0.0000000000
      5097        62  DOPC      H2X            23.3102414718       14.2743289643       12.0863559349  MEMB      34              0.0000000000
      5098        62  DOPC      H2Y            24.6633496022       14.4597207312       13.2509397125  MEMB      34              0.0000000000
      5099        62  DOPC      C23            26.9386017081        8.2595342609       13.8609623202  MEMB      34              0.0000000000
      5100        62  DOPC      H3R            25.8879533339        7.9025248386       13.8283521297  MEMB      34              0.0000000000
      5101        62  DOPC      H3S            27.3964268289        7.8827166257       14.8050601823  MEMB      34              0.0000000000
      5102        62  DOPC      C24            27.5837697898        7.6222411699       12.6237561071  MEMB      34              0.0000000000
      5103        62  DOPC      H4R            28.2267195837        6.7750803274       12.9540880496  MEMB      34              0.0000000000
      5104        62  DOPC      H4S            28.2311815423        8.3591456651       12.1065820110  MEMB      34              0.0000000000
      5105        62  DOPC      C25            26.4977626271        7.0664039446       11.6833052739  MEMB      34              0.0000000000
      5106        62  DOPC      H5R            25.7836228255        7.8737546607       11.4090512440  MEMB      34              0.0000000000
      5107        62  DOPC      H5S            25.9176075179        6.2987509304       12.2493514451  MEMB      34              0.0000000000
      5108        62  DOPC      C26            27.0435488986        6.4104734148       10.4192277954  MEMB      34              0.0000000000
      5109        62  DOPC      H6R            26.2706517426        5.7425965929        9.9796582926  MEMB      34              0.0000000000
      5110        62  DOPC      H6S            27.9124728272        5.7829895770       10.7081764381  MEMB      34              0.0000000000
      5111        62  DOPC      C27            27.5467204915        7.3898261042        9.3617167928  MEMB      34              0.0000000000
      5112        62  DOPC      H7R            28.0984869846        6.7970565381        8.6093910341  MEMB      34              0.0000000000
      5113        62  DOPC      H7S            28.2877167565        8.0528650999        9.8507978128  MEMB      34              0.0000000000
      5114        62  DOPC      C28            26.4824084931        8.2408059459        8.6400902929  MEMB      34              0.0000000000
      5115        62  DOPC      H8R            26.9604535921        8.6150231839        7.7066441342  MEMB      34              0.0000000000
      5116        62  DOPC      H8S            26.2642884504        9.1334573604        9.2657184390  MEMB      34              0.0000000000
      5117        62  DOPC      C29            25.2103488618        7.5125618753        8.2960303988  MEMB      34              0.0000000000
      5118        62  DOPC      H9R            25.3589595130        6.5329572501        7.8211823204  MEMB      34              0.0000000000
      5119        62  DOPC      C210           23.9578327036        7.9346017928        8.5511247942  MEMB      34              0.0000000000
      5120        62  DOPC      H10R           23.1095844301        7.3069619083        8.2325059451  MEMB      34              0.0000000000
      5121        62  DOPC      C211           23.5594235397        9.2223438647        9.2314002603  MEMB      34              0.0000000000
      5122        62  DOPC      H11R           24.0596936705        9.2980561277       10.2268480745  MEMB      34              0.0000000000
      5123        62  DOPC      H11S           22.4704952494        9.1813492970        9.4556177694  MEMB      34              0.0000000000
      5124        62  DOPC      C212           23.8372213011       10.5432234705        8.4674030157  MEMB      34              0.0000000000
      5125        62  DOPC      H12R           24.8727576438       10.8759996025        8.7024379017  MEMB      34              0.0000000000
      5126        62  DOPC      H12S           23.1508478129       11.3163222084        8.8812191429  MEMB      34              0.0000000000
      5127        62  DOPC      C213           23.6808996950       10.5054406704        6.9335955899  MEMB      34              0.0000000000
      5128        62  DOPC      H13R           23.0678687753       11.3778465197        6.6127133769  MEMB      34              0.0000000000
      5129        62  DOPC      H13S           23.1352567434        9.5908936448        6.6189886145  MEMB      34              0.0000000000
      5130        62  DOPC      C214           25.0388466797       10.5924759039        6.2136865926  MEMB      34              0.0000000000
      5131        62  DOPC      H14R           25.6929540955        9.7590615591        6.5363935715  MEMB      34              0.0000000000
      5132        62  DOPC      H14S           25.5322920804       11.5424217968        6.5258874417  MEMB      34              0.0000000000
      5133        62  DOPC      C215           24.9492974392       10.5662195715        4.6829574934  MEMB      34              0.0000000000
      5134        62  DOPC      H15R           25.9491082777       10.8430226930        4.2756346306  MEMB      34              0.0000000000
      5135        62  DOPC      H15S           24.2257293299       11.3446850509        4.3531638649  MEMB      34              0.0000000000
      5136        62  DOPC      C216           24.5486936905        9.2070380183        4.0798601448  MEMB      34              0.0000000000
      5137        62  DOPC      H16R           24.0664350720        9.4039311000        3.0953940061  MEMB      34              0.0000000000
      5138        62  DOPC      H16S           23.8068331268        8.6861829298        4.7213827814  MEMB      34              0.0000000000
      5139        62  DOPC      C217           25.7596643882        8.3018259998        3.8232754234  MEMB      34              0.0000000000
      5140        62  DOPC      H17R           26.1600778241        7.9413412049        4.7961786801  MEMB      34              0.0000000000
      5141        62  DOPC      H17S           26.5358782174        8.9567492333        3.3729833313  MEMB      34              0.0000000000
      5142        62  DOPC      C218           25.5241775493        7.1189497225        2.8722242170  MEMB      34              0.0000000000
      5143        62  DOPC      H18R           26.2947555157        6.3344194790        3.0449152916  MEMB      34              0.0000000000
      5144        62  DOPC      H18S           25.6068800434        7.4560667364        1.8155472643  MEMB      34              0.0000000000
      5145        62  DOPC      H18T           24.5253226432        6.6622236983        2.9871795229  MEMB      34              0.0000000000
      5146        62  DOPC      C33            25.0197355316       13.0256759908       11.6638741035  MEMB      34              0.0000000000
      5147        62  DOPC      H3X            24.9499498758       13.5698535435       10.6896253379  MEMB      34              0.0000000000
      5148        62  DOPC      H3Y            24.6862895904       11.9779899779       11.4799790192  MEMB      34              0.0000000000
      5149        62  DOPC      C34            26.4928097785       13.0819561441       12.0991075671  MEMB      34              0.0000000000
      5150        62  DOPC      H4X            26.6054878949       12.6028085769       13.0970584195  MEMB      34              0.0000000000
      5151        62  DOPC      H4Y            26.8184910980       14.1429659415       12.1779969320  MEMB      34              0.0000000000
      5152        62  DOPC      C35            27.3935763155       12.3877442905       11.0783529776  MEMB      34              0.0000000000
      5153        62  DOPC      H5X            27.5195711835       13.0592719131       10.1986301255  MEMB      34              0.0000000000
      5154        62  DOPC      H5Y            26.8386758015       11.4783732036       10.7439242723  MEMB      34              0.0000000000
      5155        62  DOPC      C36            28.7796029019       11.9600546093       11.5911033690  MEMB      34              0.0000000000
      5156        62  DOPC      H6X            29.2685360802       12.7831565535       12.1554946732  MEMB      34              0.0000000000
      5157        62  DOPC      H6Y            28.6639687590       11.1104287438       12.2988241328  MEMB      34              0.0000000000
      5158        62  DOPC      C37            29.6973459573       11.4652985458       10.4602937356  MEMB      34              0.0000000000
      5159        62  DOPC      H7X            30.2649142871       12.3208191596       10.0329309567  MEMB      34              0.0000000000
      5160        62  DOPC      H7Y            30.4371216578       10.7590656546       10.9048869921  MEMB      34              0.0000000000
      5161        62  DOPC      C38            28.8982401976       10.7796286805        9.3368304028  MEMB      34              0.0000000000
      5162        62  DOPC      H8X            28.3060967676       11.5373313434        8.7807890757  MEMB      34              0.0000000000
      5163        62  DOPC      H8Y            28.1600643913       10.1125766314        9.8264681802  MEMB      34              0.0000000000
      5164        62  DOPC      C39            29.7307050354        9.9554740777        8.4034129483  MEMB      34              0.0000000000
      5165        62  DOPC      H9X            29.8104964633        8.9039714442        8.6869226153  MEMB      34              0.0000000000
      5166        62  DOPC      C310           30.2269479715       10.3143043959        7.2177836019  MEMB      34              0.0000000000
      5167        62  DOPC      H10X           30.8054860079        9.5828382292        6.6379474297  MEMB      34              0.0000000000
      5168        62  DOPC      C311           30.0437699453       11.6453081445        6.5671430055  MEMB      34              0.0000000000
      5169        62  DOPC      H11X           31.0220787825       12.1392494764        6.3852686224  MEMB      34              0.0000000000
      5170        62  DOPC      H11Y           29.4385502025       12.3325833688        7.1946872503  MEMB      34              0.0000000000
      5171        62  DOPC      C312           29.3142231360       11.4427168752        5.2407094206  MEMB      34              0.0000000000
      5172        62  DOPC      H12X           28.4020623240       10.8100255069        5.3691457487  MEMB      34              0.0000000000
      5173        62  DOPC      H12Y           29.9808179126       10.9301964368        4.5103661125  MEMB      34              0.0000000000
      5174        62  DOPC      C313           28.8736202248       12.7897028860        4.6831693033  MEMB      34              0.0000000000
      5175        62  DOPC      H13X           28.0082704480       13.1339970566        5.2936349745  MEMB      34              0.0000000000
      5176        62  DOPC      H13Y           29.6870308114       13.5426526305        4.7741301302  MEMB      34              0.0000000000
      5177        62  DOPC      C314           28.4316170360       12.6850558546        3.2355277344  MEMB      34              0.0000000000
      5178        62  DOPC      H14X           29.2697077561       12.4128989318        2.5632541555  MEMB      34              0.0000000000
      5179        62  DOPC      H14Y           27.6877818299       11.8517748014        3.1952441501  MEMB      34              0.0000000000
      5180        62  DOPC      C315           27.7092723789       13.9381216461        2.7498175275  MEMB      34              0.0000000000
      5181        62  DOPC      H15X           27.0222806869       14.2537633238        3.5556376995  MEMB      34              0.0000000000
      5182        62  DOPC      H15Y           27.0974613958       13.6161995248        1.8954841431  MEMB      34              0.0000000000
      5183        62  DOPC      C316           28.5053925189       15.1742344918        2.3086538414  MEMB      34              0.0000000000
      5184        62  DOPC      H16X           27.8795494358       15.7299613521        1.5688556169  MEMB      34              0.0000000000
      5185        62  DOPC      H16Y           28.6293884061       15.8375437668        3.1939088208  MEMB      34              0.0000000000
      5186        62  DOPC      C317           29.8908239876       14.9105172920        1.7075723662  MEMB      34              0.0000000000
      5187        62  DOPC      H17X           30.4316981017       15.8849174335        1.6957286480  MEMB      34              0.0000000000
      5188        62  DOPC      H17Y           30.4591716342       14.2356953586        2.3857074661  MEMB      34              0.0000000000
      5189        62  DOPC      C318           29.8838949580       14.3397090945        0.2861372312  MEMB      34              0.0000000000
      5190        62  DOPC      H18X           29.2254011196       14.9418191316       -0.3758988370  MEMB      34              0.0000000000
      5191        62  DOPC      H18Y           30.9125222292       14.3554870212       -0.1370636629  MEMB      34              0.0000000000
      5192        62  DOPC      H18Z           29.5242585570       13.2880136996        0.2836991683  MEMB      34              0.0000000000
      5193        63  DOPC      N             -23.5317612374      -17.4612241380       18.4303948233  MEMB      35              0.0000000000
      5194        63  DOPC      C12           -22.3389609136      -16.6238737957       17.9732570403  MEMB      35              0.0000000000
      5195        63  DOPC      H12A          -22.7044418614      -15.7294187253       17.4874611878  MEMB      35              0.0000000000
      5196        63  DOPC      H12B          -21.7672562059      -17.1710825679       17.2316611997  MEMB      35              0.0000000000
      5197        63  DOPC      C13           -24.1120935008      -16.8131384303       19.6540859356  MEMB      35              0.0000000000
      5198        63  DOPC      H13A          -24.4817279125      -15.8113554978       19.4784384666  MEMB      35              0.0000000000
      5199        63  DOPC      H13B          -24.8907652160      -17.4083407983       20.1000461659  MEMB      35              0.0000000000
      5200        63  DOPC      H13C          -23.3268421768      -16.6995289505       20.4076993305  MEMB      35              0.0000000000
      5201        63  DOPC      C14           -23.1066157679      -18.8501858563       18.8325973588  MEMB      35              0.0000000000
      5202        63  DOPC      H14A          -23.9441519728      -19.4488191392       19.1696985911  MEMB      35              0.0000000000
      5203        63  DOPC      H14B          -22.6316760134      -19.3892492992       18.0214425168  MEMB      35              0.0000000000
      5204        63  DOPC      H14C          -22.3632512832      -18.7846721134       19.6315833934  MEMB      35              0.0000000000
      5205        63  DOPC      C15           -24.5620297511      -17.5457525352       17.3571585203  MEMB      35              0.0000000000
      5206        63  DOPC      H15A          -25.2954224263      -18.3051094803       17.6118477992  MEMB      35              0.0000000000
      5207        63  DOPC      H15B          -24.1216907959      -17.8210990592       16.4021198965  MEMB      35              0.0000000000
      5208        63  DOPC      H15C          -25.0562481837      -16.5874374664       17.2277784816  MEMB      35              0.0000000000
      5209        63  DOPC      C11           -21.3372814550      -16.1529796764       19.0555402414  MEMB      35              0.0000000000
      5210        63  DOPC      H11A          -20.5225313697      -15.5711376296       18.5556554471  MEMB      35              0.0000000000
      5211        63  DOPC      H11B          -21.8277120278      -15.4509567514       19.7664888148  MEMB      35              0.0000000000
      5212        63  DOPC      P             -19.3121466725      -17.3975196781       20.1649548498  MEMB      35              0.0000000000
      5213        63  DOPC      O13           -19.2477850018      -18.5240783797       21.1244257736  MEMB      35              0.0000000000
      5214        63  DOPC      O14           -18.7893014337      -16.0867168360       20.6311641798  MEMB      35              0.0000000000
      5215        63  DOPC      O12           -20.8491112628      -17.2709473937       19.7765711343  MEMB      35              0.0000000000
      5216        63  DOPC      O11           -18.6038981099      -17.8432718548       18.7973482569  MEMB      35              0.0000000000
      5217        63  DOPC      C1            -19.1879252505      -18.8944940468       18.0041942490  MEMB      35              0.0000000000
      5218        63  DOPC      HA            -20.1015323684      -18.5369728782       17.4872120657  MEMB      35              0.0000000000
      5219        63  DOPC      HB            -19.4794851941      -19.7642769839       18.6435140877  MEMB      35              0.0000000000
      5220        63  DOPC      C2            -18.2264668995      -19.4573917050       16.9004386792  MEMB      35              0.0000000000
      5221        63  DOPC      HS            -17.2190277592      -19.5843694669       17.3620000653  MEMB      35              0.0000000000
      5222        63  DOPC      O21           -18.1632462662      -18.5239859198       15.7758118441  MEMB      35              0.0000000000
      5223        63  DOPC      C21           -17.1536900007      -18.7998217559       14.9119524012  MEMB      35              0.0000000000
      5224        63  DOPC      O22           -16.4802678498      -19.8064209552       14.9572019920  MEMB      35              0.0000000000
      5225        63  DOPC      C22           -17.0373110490      -17.6751560248       13.8785816871  MEMB      35              0.0000000000
      5226        63  DOPC      H2R           -16.5120152543      -16.8216107859       14.3414946676  MEMB      35              0.0000000000
      5227        63  DOPC      H2S           -18.0836779793      -17.3539772725       13.6780064532  MEMB      35              0.0000000000
      5228        63  DOPC      C3            -18.7424049557      -20.8908935080       16.4759482090  MEMB      35              0.0000000000
      5229        63  DOPC      HX            -18.6508075260      -21.5212649791       17.3887175078  MEMB      35              0.0000000000
      5230        63  DOPC      HY            -18.0744513078      -21.3763419785       15.7299632115  MEMB      35              0.0000000000
      5231        63  DOPC      O31           -20.1387076935      -20.9298512831       16.0925234813  MEMB      35              0.0000000000
      5232        63  DOPC      C31           -20.3528113357      -20.6618607437       14.8207876465  MEMB      35              0.0000000000
      5233        63  DOPC      O32           -19.5233845329      -20.4289581039       13.9654471992  MEMB      35              0.0000000000
      5234        63  DOPC      C32           -21.8391622108      -20.5743521712       14.5059856615  MEMB      35              0.0000000000
      5235        63  DOPC      H2X           -21.9157260068      -20.5810736532       13.3973036299  MEMB      35              0.0000000000
      5236        63  DOPC      H2Y           -22.3455229328      -21.4699307009       14.9146638209  MEMB      35              0.0000000000
      5237        63  DOPC      C23           -16.4295993933      -18.1283565806       12.5163573873  MEMB      35              0.0000000000
      5238        63  DOPC      H3R           -17.1976041311      -17.8421658614       11.7942516602  MEMB      35              0.0000000000
      5239        63  DOPC      H3S           -16.3646806410      -19.2248446642       12.4406374958  MEMB      35              0.0000000000
      5240        63  DOPC      C24           -15.0956422434      -17.5105133233       12.0470463651  MEMB      35              0.0000000000
      5241        63  DOPC      H4R           -14.2607565601      -18.1250862938       12.4559642733  MEMB      35              0.0000000000
      5242        63  DOPC      H4S           -15.0147906134      -16.4929371538       12.4634505748  MEMB      35              0.0000000000
      5243        63  DOPC      C25           -14.8747256686      -17.3660701504       10.5230936818  MEMB      35              0.0000000000
      5244        63  DOPC      H5R           -13.7795611913      -17.4469757232       10.3256365909  MEMB      35              0.0000000000
      5245        63  DOPC      H5S           -15.1594907405      -16.3603020437       10.1504530542  MEMB      35              0.0000000000
      5246        63  DOPC      C26           -15.6007353508      -18.4207446432        9.6963311556  MEMB      35              0.0000000000
      5247        63  DOPC      H6R           -15.6582629118      -19.3600266845       10.2830218915  MEMB      35              0.0000000000
      5248        63  DOPC      H6S           -14.9742362331      -18.6423626555        8.8025616111  MEMB      35              0.0000000000
      5249        63  DOPC      C27           -16.9915519435      -17.9966006987        9.1918673015  MEMB      35              0.0000000000
      5250        63  DOPC      H7R           -16.9334228007      -16.9663559069        8.7832999528  MEMB      35              0.0000000000
      5251        63  DOPC      H7S           -17.7536443444      -17.9609805881        9.9929630352  MEMB      35              0.0000000000
      5252        63  DOPC      C28           -17.5211799686      -18.9730028884        8.1423418214  MEMB      35              0.0000000000
      5253        63  DOPC      H8R           -16.8469759102      -18.9350591028        7.2658779119  MEMB      35              0.0000000000
      5254        63  DOPC      H8S           -18.5143611315      -18.6160919655        7.8108259686  MEMB      35              0.0000000000
      5255        63  DOPC      C29           -17.5258428213      -20.3749582485        8.6992598763  MEMB      35              0.0000000000
      5256        63  DOPC      H9R           -16.6318616927      -20.9534330430        8.4256531665  MEMB      35              0.0000000000
      5257        63  DOPC      C210          -18.4765276966      -20.9873761901        9.4262152587  MEMB      35              0.0000000000
      5258        63  DOPC      H10R          -18.2519396246      -21.9893605219        9.8209422972  MEMB      35              0.0000000000
      5259        63  DOPC      C211          -19.8011791266      -20.4242401073        9.8735192243  MEMB      35              0.0000000000
      5260        63  DOPC      H11R          -19.8771491643      -19.3308268164        9.6889409719  MEMB      35              0.0000000000
      5261        63  DOPC      H11S          -19.9089757842      -20.5702107176       10.9752200216  MEMB      35              0.0000000000
      5262        63  DOPC      C212          -20.9837884119      -21.1448767665        9.1862630033  MEMB      35              0.0000000000
      5263        63  DOPC      H12R          -21.9358180364      -20.7095887160        9.5648268209  MEMB      35              0.0000000000
      5264        63  DOPC      H12S          -20.9639712996      -22.2146271149        9.4995838793  MEMB      35              0.0000000000
      5265        63  DOPC      C213          -20.9940543841      -21.1437208651        7.6404460463  MEMB      35              0.0000000000
      5266        63  DOPC      H13R          -21.8584210343      -21.7562296651        7.3069813404  MEMB      35              0.0000000000
      5267        63  DOPC      H13S          -20.0731688483      -21.6292075433        7.2528288868  MEMB      35              0.0000000000
      5268        63  DOPC      C214          -21.1541467094      -19.7825056242        6.9754434385  MEMB      35              0.0000000000
      5269        63  DOPC      H14R          -20.3778470595      -19.0730553109        7.3196923608  MEMB      35              0.0000000000
      5270        63  DOPC      H14S          -22.1371274352      -19.3432208026        7.2482488888  MEMB      35              0.0000000000
      5271        63  DOPC      C215          -21.0332103883      -19.8142923432        5.4506622535  MEMB      35              0.0000000000
      5272        63  DOPC      H15R          -19.9831617677      -19.9326589255        5.1091653817  MEMB      35              0.0000000000
      5273        63  DOPC      H15S          -21.3022395629      -18.7741436006        5.1904796103  MEMB      35              0.0000000000
      5274        63  DOPC      C216          -21.8960972408      -20.8178966124        4.6658068495  MEMB      35              0.0000000000
      5275        63  DOPC      H16R          -22.9106605523      -20.9688789036        5.0938493833  MEMB      35              0.0000000000
      5276        63  DOPC      H16S          -21.4055750884      -21.8171282077        4.6648287057  MEMB      35              0.0000000000
      5277        63  DOPC      C217          -22.0325133483      -20.3023051098        3.2299033640  MEMB      35              0.0000000000
      5278        63  DOPC      H17R          -22.4423918568      -21.1072495930        2.5904652756  MEMB      35              0.0000000000
      5279        63  DOPC      H17S          -21.0040160471      -20.1060714500        2.8437483960  MEMB      35              0.0000000000
      5280        63  DOPC      C218          -22.8666000198      -19.0085433189        3.1431377408  MEMB      35              0.0000000000
      5281        63  DOPC      H18R          -23.9513288760      -19.1973684529        3.0462011805  MEMB      35              0.0000000000
      5282        63  DOPC      H18S          -22.5050541295      -18.3550201883        2.3215710432  MEMB      35              0.0000000000
      5283        63  DOPC      H18T          -22.7853005034      -18.4153604226        4.0733752640  MEMB      35              0.0000000000
      5284        63  DOPC      C33           -22.4827983492      -19.2949380798       15.0664387524  MEMB      35              0.0000000000
      5285        63  DOPC      H3X           -22.4308084272      -19.3504270432       16.1753050508  MEMB      35              0.0000000000
      5286        63  DOPC      H3Y           -23.5575079627      -19.2821449519       14.7676048413  MEMB      35              0.0000000000
      5287        63  DOPC      C34           -21.8096151284      -17.9986962711       14.6047548985  MEMB      35              0.0000000000
      5288        63  DOPC      H4X           -20.7377415176      -17.9808807336       14.9057325336  MEMB      35              0.0000000000
      5289        63  DOPC      H4Y           -22.3141105655      -17.1447171452       15.1120230484  MEMB      35              0.0000000000
      5290        63  DOPC      C35           -21.8986748456      -17.7301912250       13.1028212349  MEMB      35              0.0000000000
      5291        63  DOPC      H5X           -22.9733871133      -17.6980868084       12.8124565198  MEMB      35              0.0000000000
      5292        63  DOPC      H5Y           -21.4036170784      -18.5251117365       12.5015980714  MEMB      35              0.0000000000
      5293        63  DOPC      C36           -21.2826022433      -16.3727317960       12.7695778910  MEMB      35              0.0000000000
      5294        63  DOPC      H6X           -21.2776428870      -15.7298868894       13.6807673194  MEMB      35              0.0000000000
      5295        63  DOPC      H6Y           -20.2294880031      -16.5087373316       12.4789593973  MEMB      35              0.0000000000
      5296        63  DOPC      C37           -22.0654461307      -15.6138396142       11.6959027466  MEMB      35              0.0000000000
      5297        63  DOPC      H7X           -23.1137104250      -15.4966192919       12.0548808695  MEMB      35              0.0000000000
      5298        63  DOPC      H7Y           -21.6325673084      -14.5912574662       11.6088870677  MEMB      35              0.0000000000
      5299        63  DOPC      C38           -22.0386998175      -16.2714491456       10.3227952487  MEMB      35              0.0000000000
      5300        63  DOPC      H8X           -22.4577955254      -17.2956367973       10.3809260009  MEMB      35              0.0000000000
      5301        63  DOPC      H8Y           -20.9863565728      -16.3890734331        9.9902829815  MEMB      35              0.0000000000
      5302        63  DOPC      C39           -22.8302638733      -15.4090727859        9.3812175622  MEMB      35              0.0000000000
      5303        63  DOPC      H9X           -23.6053234282      -14.7711486696        9.8374613113  MEMB      35              0.0000000000
      5304        63  DOPC      C310          -22.6529865931      -15.4048015203        8.0591497274  MEMB      35              0.0000000000
      5305        63  DOPC      H10X          -23.2741114003      -14.7463493263        7.4323312033  MEMB      35              0.0000000000
      5306        63  DOPC      C311          -21.6464967219      -16.2575069626        7.3363582314  MEMB      35              0.0000000000
      5307        63  DOPC      H11X          -22.1248506185      -16.6717843049        6.4253216318  MEMB      35              0.0000000000
      5308        63  DOPC      H11Y          -21.3322549814      -17.1417536672        7.9348191633  MEMB      35              0.0000000000
      5309        63  DOPC      C312          -20.3854337625      -15.4632594748        6.9552698372  MEMB      35              0.0000000000
      5310        63  DOPC      H12X          -19.7573878277      -16.0933042538        6.2868721219  MEMB      35              0.0000000000
      5311        63  DOPC      H12Y          -19.7556155137      -15.2804857957        7.8413967660  MEMB      35              0.0000000000
      5312        63  DOPC      C313          -20.6965460488      -14.1035787847        6.3083170284  MEMB      35              0.0000000000
      5313        63  DOPC      H13X          -21.2235525374      -13.4578153652        7.0415873545  MEMB      35              0.0000000000
      5314        63  DOPC      H13Y          -19.7336435978      -13.5998344137        6.0619553422  MEMB      35              0.0000000000
      5315        63  DOPC      C314          -21.5355913564      -14.2422388946        5.0307578796  MEMB      35              0.0000000000
      5316        63  DOPC      H14X          -22.5869094187      -14.4960369633        5.2835172065  MEMB      35              0.0000000000
      5317        63  DOPC      H14Y          -21.5381996510      -13.2696587807        4.5082781535  MEMB      35              0.0000000000
      5318        63  DOPC      C315          -20.9293061864      -15.3465845858        4.1711166788  MEMB      35              0.0000000000
      5319        63  DOPC      H15X          -21.2303183386      -16.3280000977        4.5972151391  MEMB      35              0.0000000000
      5320        63  DOPC      H15Y          -19.8273971808      -15.2368697129        4.2661782820  MEMB      35              0.0000000000
      5321        63  DOPC      C316          -21.2316242377      -15.4008636257        2.6834049008  MEMB      35              0.0000000000
      5322        63  DOPC      H16X          -22.2870354812      -15.7094465594        2.5224832464  MEMB      35              0.0000000000
      5323        63  DOPC      H16Y          -21.1128372112      -14.3916747380        2.2288999205  MEMB      35              0.0000000000
      5324        63  DOPC      C317          -20.2576726440      -16.3926580050        2.0024417113  MEMB      35              0.0000000000
      5325        63  DOPC      H17X          -20.7907609832      -16.8562949583        1.1502385972  MEMB      35              0.0000000000
      5326        63  DOPC      H17Y          -19.4012657303      -15.8148853191        1.5984950120  MEMB      35              0.0000000000
      5327        63  DOPC      C318          -19.6451040866      -17.5185413159        2.8612751984  MEMB      35              0.0000000000
      5328        63  DOPC      H18X          -18.8715156948      -17.1362100957        3.5533067232  MEMB      35              0.0000000000
      5329        63  DOPC      H18Y          -20.4031189723      -18.0196400944        3.4823760513  MEMB      35              0.0000000000
      5330        63  DOPC      H18Z          -19.1563248868      -18.2816920812        2.2241061148  MEMB      35              0.0000000000
      5331        64  DOPC      N              19.7550640057      -22.1983615593       19.7727557198  MEMB      36              0.0000000000
      5332        64  DOPC      C12            19.1889325517      -22.7395672174       18.4651677574  MEMB      36              0.0000000000
      5333        64  DOPC      H12A           19.4095509219      -23.8058999656       18.4035104623  MEMB      36              0.0000000000
      5334        64  DOPC      H12B           19.6399740297      -22.2500112467       17.6173480093  MEMB      36              0.0000000000
      5335        64  DOPC      C13            19.5632474893      -20.7146974814       19.8912592250  MEMB      36              0.0000000000
      5336        64  DOPC      H13A           19.9893673337      -20.3357887041       20.8236213627  MEMB      36              0.0000000000
      5337        64  DOPC      H13B           20.0180761841      -20.1515994286       19.0851290002  MEMB      36              0.0000000000
      5338        64  DOPC      H13C           18.4991174086      -20.4874838901       19.8997490675  MEMB      36              0.0000000000
      5339        64  DOPC      C14            21.1790876835      -22.5336903923       19.9538583039  MEMB      36              0.0000000000
      5340        64  DOPC      H14A           21.4051344395      -23.5787788475       19.7602394155  MEMB      36              0.0000000000
      5341        64  DOPC      H14B           21.8116341260      -21.9238706523       19.3174018324  MEMB      36              0.0000000000
      5342        64  DOPC      H14C           21.4642842418      -22.3384327428       20.9874986389  MEMB      36              0.0000000000
      5343        64  DOPC      C15            19.0792373716      -22.8916692874       20.9099312633  MEMB      36              0.0000000000
      5344        64  DOPC      H15A           19.3306902856      -22.4338690142       21.8669150791  MEMB      36              0.0000000000
      5345        64  DOPC      H15B           19.3362604871      -23.9480283051       20.9494916039  MEMB      36              0.0000000000
      5346        64  DOPC      H15C           18.0003195574      -22.8671895454       20.7716171572  MEMB      36              0.0000000000
      5347        64  DOPC      C11            17.6633454802      -22.6643338728       18.2666674236  MEMB      36              0.0000000000
      5348        64  DOPC      H11A           17.2587166355      -21.6629884048       18.5458739272  MEMB      36              0.0000000000
      5349        64  DOPC      H11B           17.4525143378      -22.8200947860       17.1838080709  MEMB      36              0.0000000000
      5350        64  DOPC      P              15.5181125532      -23.9118492042       19.0341092667  MEMB      36              0.0000000000
      5351        64  DOPC      O13            14.8890652612      -22.7388811490       18.4263951215  MEMB      36              0.0000000000
      5352        64  DOPC      O14            15.1155021879      -24.2566679594       20.4165034664  MEMB      36              0.0000000000
      5353        64  DOPC      O12            17.0754479447      -23.7052152736       19.0294660434  MEMB      36              0.0000000000
      5354        64  DOPC      O11            15.3180079500      -25.1978997534       18.1474269113  MEMB      36              0.0000000000
      5355        64  DOPC      C1             14.2489887804      -25.2765152758       17.2112935737  MEMB      36              0.0000000000
      5356        64  DOPC      HA             13.3365130544      -24.7173238441       17.5291307870  MEMB      36              0.0000000000
      5357        64  DOPC      HB             13.9564398062      -26.3471865392       17.1215638882  MEMB      36              0.0000000000
      5358        64  DOPC      C2             14.6709355380      -24.7796391422       15.8011586907  MEMB      36              0.0000000000
      5359        64  DOPC      HS             13.8558275566      -25.0943588121       15.1030329603  MEMB      36              0.0000000000
      5360        64  DOPC      O21            15.9538148576      -25.3037134885       15.3983157915  MEMB      36              0.0000000000
      5361        64  DOPC      C21            15.8519433700      -26.5213710783       14.9242308423  MEMB      36              0.0000000000
      5362        64  DOPC      O22            14.8304083664      -27.1854794985       14.9004018856  MEMB      36              0.0000000000
      5363        64  DOPC      C22            17.1689246774      -26.9417360508       14.2727570237  MEMB      36              0.0000000000
      5364        64  DOPC      H2R            17.4060723893      -27.9524805010       14.6564751844  MEMB      36              0.0000000000
      5365        64  DOPC      H2S            17.9516320620      -26.2378426982       14.6102178569  MEMB      36              0.0000000000
      5366        64  DOPC      C3             14.7481534923      -23.2508882691       15.6567209134  MEMB      36              0.0000000000
      5367        64  DOPC      HX             15.7046093931      -22.9055309531       16.1048617220  MEMB      36              0.0000000000
      5368        64  DOPC      HY             13.8979886552      -22.7490386179       16.1727734584  MEMB      36              0.0000000000
      5369        64  DOPC      O31            14.6923094245      -22.9794437535       14.2626446534  MEMB      36              0.0000000000
      5370        64  DOPC      C31            15.1287254034      -21.8143234934       13.8817104442  MEMB      36              0.0000000000
      5371        64  DOPC      O32            15.7140555508      -20.9708171900       14.5319084944  MEMB      36              0.0000000000
      5372        64  DOPC      C32            14.8836816546      -21.8086691723       12.3805475442  MEMB      36              0.0000000000
      5373        64  DOPC      H2X            13.8995675166      -22.3001247556       12.2219331061  MEMB      36              0.0000000000
      5374        64  DOPC      H2Y            14.8596193251      -20.7611191916       12.0384551252  MEMB      36              0.0000000000
      5375        64  DOPC      C23            17.0365153890      -26.9636442310       12.7249640472  MEMB      36              0.0000000000
      5376        64  DOPC      H3R            16.8043168735      -25.9237991726       12.3930277158  MEMB      36              0.0000000000
      5377        64  DOPC      H3S            16.1791032313      -27.6132538901       12.4537201301  MEMB      36              0.0000000000
      5378        64  DOPC      C24            18.2763480739      -27.4076502606       11.9242999922  MEMB      36              0.0000000000
      5379        64  DOPC      H4R            18.7833616873      -28.2430294558       12.3889075701  MEMB      36              0.0000000000
      5380        64  DOPC      H4S            18.9896684343      -26.5506733190       11.9998808596  MEMB      36              0.0000000000
      5381        64  DOPC      C25            18.0825573923      -27.6360519277       10.3989710484  MEMB      36              0.0000000000
      5382        64  DOPC      H5R            19.0917131528      -27.7550757400        9.9455039200  MEMB      36              0.0000000000
      5383        64  DOPC      H5S            17.6485740730      -26.6506908054       10.2087066671  MEMB      36              0.0000000000
      5384        64  DOPC      C26            17.1407161378      -28.7453240655        9.8362851019  MEMB      36              0.0000000000
      5385        64  DOPC      H6R            16.2310734526      -28.7804274442       10.4385773000  MEMB      36              0.0000000000
      5386        64  DOPC      H6S            17.7671688715      -29.5982095767       10.1837995489  MEMB      36              0.0000000000
      5387        64  DOPC      C27            16.8969307528      -29.2240538515        8.3092003126  MEMB      36              0.0000000000
      5388        64  DOPC      H7R            16.2807155419      -30.1370759376        8.4270141937  MEMB      36              0.0000000000
      5389        64  DOPC      H7S            17.9078756610      -29.4845968708        8.0323257522  MEMB      36              0.0000000000
      5390        64  DOPC      C28            16.1881229292      -28.6808314110        6.9665346256  MEMB      36              0.0000000000
      5391        64  DOPC      H8R            16.5517078572      -27.7111240621        6.6963443021  MEMB      36              0.0000000000
      5392        64  DOPC      H8S            15.1077216612      -28.5537787188        7.1768881498  MEMB      36              0.0000000000
      5393        64  DOPC      C29            16.3740641047      -29.3478043076        5.6025888368  MEMB      36              0.0000000000
      5394        64  DOPC      H9R            15.7538462766      -30.2460004903        5.5389923281  MEMB      36              0.0000000000
      5395        64  DOPC      C210           17.1085231407      -29.1061731605        4.4595011120  MEMB      36              0.0000000000
      5396        64  DOPC      H10R           16.9303940775      -29.8537111247        3.6721751162  MEMB      36              0.0000000000
      5397        64  DOPC      C211           18.1143217761      -28.1066247212        3.8845150359  MEMB      36              0.0000000000
      5398        64  DOPC      H11R           18.2874283943      -28.4215410783        2.8288301689  MEMB      36              0.0000000000
      5399        64  DOPC      H11S           19.0850233713      -28.3577083953        4.3496877765  MEMB      36              0.0000000000
      5400        64  DOPC      C212           18.0508110200      -26.5408046225        3.7436815345  MEMB      36              0.0000000000
      5401        64  DOPC      H12R           19.0804255538      -26.1794328200        3.9429721254  MEMB      36              0.0000000000
      5402        64  DOPC      H12S           17.8592852733      -26.2383168374        2.6993284968  MEMB      36              0.0000000000
      5403        64  DOPC      C213           17.1870657098      -25.7896654209        4.7591257548  MEMB      36              0.0000000000
      5404        64  DOPC      H13R           17.9085251725      -25.5402151561        5.5672472176  MEMB      36              0.0000000000
      5405        64  DOPC      H13S           16.4360426194      -26.4952987093        5.1416041159  MEMB      36              0.0000000000
      5406        64  DOPC      C214           16.4891260129      -24.4537772590        4.4149170672  MEMB      36              0.0000000000
      5407        64  DOPC      H14R           16.7154541271      -24.1132782018        3.3896249216  MEMB      36              0.0000000000
      5408        64  DOPC      H14S           16.9702924805      -23.7085193367        5.1000969146  MEMB      36              0.0000000000
      5409        64  DOPC      C215           15.0000536650      -24.2547009982        4.8272028819  MEMB      36              0.0000000000
      5410        64  DOPC      H15R           14.8136868630      -23.1791994379        4.6348116738  MEMB      36              0.0000000000
      5411        64  DOPC      H15S           14.9168980045      -24.4316133796        5.9235280478  MEMB      36              0.0000000000
      5412        64  DOPC      C216           13.8080932133      -25.0304407226        4.2150748387  MEMB      36              0.0000000000
      5413        64  DOPC      H16R           12.8586749919      -24.7824584811        4.7166864236  MEMB      36              0.0000000000
      5414        64  DOPC      H16S           13.9616604786      -26.0644958738        4.5620835435  MEMB      36              0.0000000000
      5415        64  DOPC      C217           13.5556059824      -24.8311515517        2.6983784678  MEMB      36              0.0000000000
      5416        64  DOPC      H17R           13.7488933248      -25.8095726223        2.2682748582  MEMB      36              0.0000000000
      5417        64  DOPC      H17S           14.3024086654      -24.1005934243        2.3142078993  MEMB      36              0.0000000000
      5418        64  DOPC      C218           12.1759313060      -24.5924849866        2.0479080144  MEMB      36              0.0000000000
      5419        64  DOPC      H18R           12.0167290879      -23.5142486317        1.8596371198  MEMB      36              0.0000000000
      5420        64  DOPC      H18S           11.3425503442      -25.0246950223        2.6391135782  MEMB      36              0.0000000000
      5421        64  DOPC      H18T           12.1429237399      -25.0889101278        1.0487216809  MEMB      36              0.0000000000
      5422        64  DOPC      C33            15.9168979006      -22.5916730669       11.5590480747  MEMB      36              0.0000000000
      5423        64  DOPC      H3X            15.6749811885      -23.6804424375       11.5840832635  MEMB      36              0.0000000000
      5424        64  DOPC      H3Y            16.9248654101      -22.4677716284       12.0131623911  MEMB      36              0.0000000000
      5425        64  DOPC      C34            15.9352920863      -22.0919692265       10.1044926482  MEMB      36              0.0000000000
      5426        64  DOPC      H4X            16.0301886631      -20.9852276916       10.0792509117  MEMB      36              0.0000000000
      5427        64  DOPC      H4Y            14.9673689844      -22.3685146130        9.6280156209  MEMB      36              0.0000000000
      5428        64  DOPC      C35            17.0858242614      -22.7095921036        9.3055285161  MEMB      36              0.0000000000
      5429        64  DOPC      H5X            16.8952051824      -22.6426810669        8.2105425949  MEMB      36              0.0000000000
      5430        64  DOPC      H5Y            17.0824685044      -23.7738842927        9.6146044571  MEMB      36              0.0000000000
      5431        64  DOPC      C36            18.4432265999      -22.0688394957        9.6243066027  MEMB      36              0.0000000000
      5432        64  DOPC      H6X            18.5443173498      -21.1135344890        9.0669512094  MEMB      36              0.0000000000
      5433        64  DOPC      H6Y            18.4302022467      -21.8151655059       10.7085601428  MEMB      36              0.0000000000
      5434        64  DOPC      C37            19.7089569636      -22.9197376964        9.3964249010  MEMB      36              0.0000000000
      5435        64  DOPC      H7X            20.4204952145      -22.5776998010       10.1670066272  MEMB      36              0.0000000000
      5436        64  DOPC      H7Y            19.5803978479      -23.9858996402        9.6484136340  MEMB      36              0.0000000000
      5437        64  DOPC      C38            20.4567628810      -22.6748159983        8.0683187142  MEMB      36              0.0000000000
      5438        64  DOPC      H8X            21.4184701202      -23.2372222895        8.1166558449  MEMB      36              0.0000000000
      5439        64  DOPC      H8Y            20.7373020998      -21.5983233666        8.0668556695  MEMB      36              0.0000000000
      5440        64  DOPC      C39            19.7256343241      -23.0519416634        6.8042266850  MEMB      36              0.0000000000
      5441        64  DOPC      H9X            19.6666178579      -24.1308507675        6.6062332546  MEMB      36              0.0000000000
      5442        64  DOPC      C310           19.2179795017      -22.2162488031        5.8808475368  MEMB      36              0.0000000000
      5443        64  DOPC      H10X           18.7764770519      -22.6461789730        4.9696126347  MEMB      36              0.0000000000
      5444        64  DOPC      C311           19.2617646136      -20.7124128268        5.8916922374  MEMB      36              0.0000000000
      5445        64  DOPC      H11X           19.5607407716      -20.3756188614        4.8842861031  MEMB      36              0.0000000000
      5446        64  DOPC      H11Y           20.0490158340      -20.3299909395        6.5806674130  MEMB      36              0.0000000000
      5447        64  DOPC      C312           17.9587160281      -19.9790807667        6.2595734651  MEMB      36              0.0000000000
      5448        64  DOPC      H12X           18.2370977776      -18.9142379745        6.4533758727  MEMB      36              0.0000000000
      5449        64  DOPC      H12Y           17.5480427927      -20.3826311662        7.2108171489  MEMB      36              0.0000000000
      5450        64  DOPC      C313           16.8473484054      -19.9581756994        5.1892856719  MEMB      36              0.0000000000
      5451        64  DOPC      H13X           16.2991914045      -20.9227589005        5.1605154431  MEMB      36              0.0000000000
      5452        64  DOPC      H13Y           16.1458408032      -19.1809232783        5.5615257766  MEMB      36              0.0000000000
      5453        64  DOPC      C314           17.2724167615      -19.5301102430        3.7689717609  MEMB      36              0.0000000000
      5454        64  DOPC      H14X           16.5842198273      -18.7707663624        3.3446910303  MEMB      36              0.0000000000
      5455        64  DOPC      H14Y           18.2484646801      -19.0058839513        3.8578359855  MEMB      36              0.0000000000
      5456        64  DOPC      C315           17.3811170666      -20.6821506589        2.7507347677  MEMB      36              0.0000000000
      5457        64  DOPC      H15X           17.8590720375      -21.5526087840        3.2421122248  MEMB      36              0.0000000000
      5458        64  DOPC      H15Y           18.0404882905      -20.3193599513        1.9287716089  MEMB      36              0.0000000000
      5459        64  DOPC      C316           16.0867971172      -21.1588432892        2.0681639669  MEMB      36              0.0000000000
      5460        64  DOPC      H16X           15.3964893900      -21.5951458735        2.8183205994  MEMB      36              0.0000000000
      5461        64  DOPC      H16Y           15.5838846881      -20.2756474845        1.6154943699  MEMB      36              0.0000000000
      5462        64  DOPC      C317           16.3684247566      -22.1852453765        0.9490988535  MEMB      36              0.0000000000
      5463        64  DOPC      H17X           17.3843104301      -21.9815068568        0.5379196591  MEMB      36              0.0000000000
      5464        64  DOPC      H17Y           16.4035814933      -23.2148724172        1.3690184141  MEMB      36              0.0000000000
      5465        64  DOPC      C318           15.3701959038      -22.1374410475       -0.2129319252  MEMB      36              0.0000000000
      5466        64  DOPC      H18X           15.7686710361      -22.6737366616       -1.0876463445  MEMB      36              0.0000000000
      5467        64  DOPC      H18Y           14.4003771693      -22.6016800265        0.0603085455  MEMB      36              0.0000000000
      5468        64  DOPC      H18Z           15.1950411834      -21.0976641101       -0.5547733260  MEMB      36              0.0000000000
      5469        65  DOPC      N              23.9761993452      -11.0621138320       17.3040400983  MEMB      37              0.0000000000
      5470        65  DOPC      C12            23.7109465442      -10.2985009315       18.6144283372  MEMB      37              0.0000000000
      5471        65  DOPC      H12A           23.3523023066      -10.9953967306       19.3731500005  MEMB      37              0.0000000000
      5472        65  DOPC      H12B           22.9351430635       -9.5637313745       18.4558150113  MEMB      37              0.0000000000
      5473        65  DOPC      C13            24.7658512875      -10.2329901609       16.3360511072  MEMB      37              0.0000000000
      5474        65  DOPC      H13A           24.2068689455       -9.3758477771       15.9896763721  MEMB      37              0.0000000000
      5475        65  DOPC      H13B           25.6841923569       -9.8908726558       16.8142730866  MEMB      37              0.0000000000
      5476        65  DOPC      H13C           25.0714991701      -10.8076997103       15.4698604032  MEMB      37              0.0000000000
      5477        65  DOPC      C14            22.6833705021      -11.4835540229       16.6793350372  MEMB      37              0.0000000000
      5478        65  DOPC      H14A           22.0386973775      -10.6338597739       16.4766337975  MEMB      37              0.0000000000
      5479        65  DOPC      H14B           22.8534170668      -11.9922647444       15.7382997058  MEMB      37              0.0000000000
      5480        65  DOPC      H14C           22.1389869078      -12.1535195690       17.3353637091  MEMB      37              0.0000000000
      5481        65  DOPC      C15            24.7763768035      -12.2808764877       17.6200414058  MEMB      37              0.0000000000
      5482        65  DOPC      H15A           24.2836510569      -12.9036699254       18.3711311634  MEMB      37              0.0000000000
      5483        65  DOPC      H15B           25.6818168088      -11.9869269270       18.1566819906  MEMB      37              0.0000000000
      5484        65  DOPC      H15C           25.0029592379      -12.8752720550       16.7530338981  MEMB      37              0.0000000000
      5485        65  DOPC      C11            24.8744041849       -9.5780536585       19.3350668297  MEMB      37              0.0000000000
      5486        65  DOPC      H11A           25.5358816795       -9.0640280037       18.6020292992  MEMB      37              0.0000000000
      5487        65  DOPC      H11B           24.4139757549       -8.7835151892       19.9786981009  MEMB      37              0.0000000000
      5488        65  DOPC      P              26.8117962186       -9.8671482863       20.9842028072  MEMB      37              0.0000000000
      5489        65  DOPC      O13            27.3953282545      -10.8353233641       21.9316187883  MEMB      37              0.0000000000
      5490        65  DOPC      O14            26.3931708237       -8.5410711400       21.5395238126  MEMB      37              0.0000000000
      5491        65  DOPC      O12            25.5983738605      -10.5142453562       20.1511842766  MEMB      37              0.0000000000
      5492        65  DOPC      O11            27.8492912994       -9.6143362886       19.8111323749  MEMB      37              0.0000000000
      5493        65  DOPC      C1             27.9552298760      -10.6541300038       18.8284102814  MEMB      37              0.0000000000
      5494        65  DOPC      HA             26.9806147472      -10.8637090855       18.3379890967  MEMB      37              0.0000000000
      5495        65  DOPC      HB             28.3212688844      -11.6001834665       19.2910551215  MEMB      37              0.0000000000
      5496        65  DOPC      C2             28.8711014916      -10.2083747094       17.6807986920  MEMB      37              0.0000000000
      5497        65  DOPC      HS             29.7617899084       -9.7168286172       18.1309027443  MEMB      37              0.0000000000
      5498        65  DOPC      O21            28.0919011645       -9.2611151256       16.9076745275  MEMB      37              0.0000000000
      5499        65  DOPC      C21            28.6250043550       -8.7186235967       15.8273142578  MEMB      37              0.0000000000
      5500        65  DOPC      O22            29.6570100676       -9.0635609720       15.2867550568  MEMB      37              0.0000000000
      5501        65  DOPC      C22            27.9419420060       -7.3456560696       15.6129147238  MEMB      37              0.0000000000
      5502        65  DOPC      H2R            28.7589701976       -6.6155603207       15.4525507441  MEMB      37              0.0000000000
      5503        65  DOPC      H2S            27.4047877390       -7.0749660298       16.5473521936  MEMB      37              0.0000000000
      5504        65  DOPC      C3             29.3587476457      -11.4609450736       16.8719583778  MEMB      37              0.0000000000
      5505        65  DOPC      HX             29.7842424620      -12.1628936423       17.6290997141  MEMB      37              0.0000000000
      5506        65  DOPC      HY             30.2117471022      -11.1760545221       16.2208139162  MEMB      37              0.0000000000
      5507        65  DOPC      O31            28.3251560709      -12.0587331293       16.0621294662  MEMB      37              0.0000000000
      5508        65  DOPC      C31            28.1159603246      -13.3474318771       16.2030394869  MEMB      37              0.0000000000
      5509        65  DOPC      O32            28.5924910885      -14.0837761258       17.0481804952  MEMB      37              0.0000000000
      5510        65  DOPC      C32            27.2161181880      -13.8511393774       15.0934015308  MEMB      37              0.0000000000
      5511        65  DOPC      H2X            26.1859045766      -13.4877312142       15.2749193196  MEMB      37              0.0000000000
      5512        65  DOPC      H2Y            27.5503979451      -13.4492621325       14.1122511966  MEMB      37              0.0000000000
      5513        65  DOPC      C23            26.9506514566       -7.2498790738       14.4296598474  MEMB      37              0.0000000000
      5514        65  DOPC      H3R            26.3054187256       -6.3521514614       14.5750107726  MEMB      37              0.0000000000
      5515        65  DOPC      H3S            26.2740370995       -8.1274615464       14.4419773870  MEMB      37              0.0000000000
      5516        65  DOPC      C24            27.6264180485       -7.0869171917       13.0556157433  MEMB      37              0.0000000000
      5517        65  DOPC      H4R            28.4945128988       -7.7748739037       12.9697099862  MEMB      37              0.0000000000
      5518        65  DOPC      H4S            28.0374150062       -6.0579989006       12.9569538830  MEMB      37              0.0000000000
      5519        65  DOPC      C25            26.6701917403       -7.3410590292       11.8722928768  MEMB      37              0.0000000000
      5520        65  DOPC      H5R            27.2418410128       -7.2161459603       10.9250515900  MEMB      37              0.0000000000
      5521        65  DOPC      H5S            25.8751110648       -6.5614449907       11.8720658266  MEMB      37              0.0000000000
      5522        65  DOPC      C26            26.0003932466       -8.7333251727       11.8797213496  MEMB      37              0.0000000000
      5523        65  DOPC      H6R            25.5089063440       -8.8991716078       10.8948424901  MEMB      37              0.0000000000
      5524        65  DOPC      H6S            25.2033474502       -8.7289509784       12.6537163138  MEMB      37              0.0000000000
      5525        65  DOPC      C27            26.9647273583       -9.8982929414       12.1765493563  MEMB      37              0.0000000000
      5526        65  DOPC      H7R            26.3834369947      -10.8220917897       12.3902217000  MEMB      37              0.0000000000
      5527        65  DOPC      H7S            27.5329237840       -9.6782910996       13.1053269089  MEMB      37              0.0000000000
      5528        65  DOPC      C28            27.9731473057      -10.1300736181       11.0372243707  MEMB      37              0.0000000000
      5529        65  DOPC      H8R            28.9183345062      -10.5142153961       11.4614737563  MEMB      37              0.0000000000
      5530        65  DOPC      H8S            28.2337897789       -9.1558001714       10.5765336437  MEMB      37              0.0000000000
      5531        65  DOPC      C29            27.4244663266      -11.1231659695       10.0520821012  MEMB      37              0.0000000000
      5532        65  DOPC      H9R            27.3206967218      -12.1457499810       10.4485074223  MEMB      37              0.0000000000
      5533        65  DOPC      C210           27.1407518204      -10.9025212127        8.7603591313  MEMB      37              0.0000000000
      5534        65  DOPC      H10R           26.7496016173      -11.7404813795        8.1688795096  MEMB      37              0.0000000000
      5535        65  DOPC      C211           27.3068730459       -9.6236957791        7.9850589903  MEMB      37              0.0000000000
      5536        65  DOPC      H11R           27.7855439332       -8.8322659680        8.6007763943  MEMB      37              0.0000000000
      5537        65  DOPC      H11S           26.3165485565       -9.2255641583        7.6741887939  MEMB      37              0.0000000000
      5538        65  DOPC      C212           28.1794230488       -9.8534831351        6.7335091749  MEMB      37              0.0000000000
      5539        65  DOPC      H12R           27.5249178328       -9.9361974266        5.8383947420  MEMB      37              0.0000000000
      5540        65  DOPC      H12S           28.7705513490      -10.7978149508        6.8127876636  MEMB      37              0.0000000000
      5541        65  DOPC      C213           29.1959091904       -8.7331631973        6.5307048363  MEMB      37              0.0000000000
      5542        65  DOPC      H13R           29.7726740748       -8.6814686102        7.4810055070  MEMB      37              0.0000000000
      5543        65  DOPC      H13S           28.6638431389       -7.7674719342        6.3785819550  MEMB      37              0.0000000000
      5544        65  DOPC      C214           30.1827844591       -8.9778597066        5.3808527555  MEMB      37              0.0000000000
      5545        65  DOPC      H14R           30.8864626160       -9.7853441888        5.6890910355  MEMB      37              0.0000000000
      5546        65  DOPC      H14S           30.7868431684       -8.0590082686        5.2146019765  MEMB      37              0.0000000000
      5547        65  DOPC      C215           29.5361785879       -9.3926562470        4.0512594704  MEMB      37              0.0000000000
      5548        65  DOPC      H15R           28.9974365524      -10.3585411717        4.1719133030  MEMB      37              0.0000000000
      5549        65  DOPC      H15S           30.3623466998       -9.5525535837        3.3275885379  MEMB      37              0.0000000000
      5550        65  DOPC      C216           28.6009988272       -8.3408667327        3.4385111784  MEMB      37              0.0000000000
      5551        65  DOPC      H16R           29.2013409472       -7.4265636600        3.2305008906  MEMB      37              0.0000000000
      5552        65  DOPC      H16S           27.8093196529       -8.0667922020        4.1686889668  MEMB      37              0.0000000000
      5553        65  DOPC      C217           27.9305392550       -8.8041271493        2.1338964360  MEMB      37              0.0000000000
      5554        65  DOPC      H17R           27.4328476844       -7.9245607429        1.6637317514  MEMB      37              0.0000000000
      5555        65  DOPC      H17S           27.1363999114       -9.5466741249        2.3803856518  MEMB      37              0.0000000000
      5556        65  DOPC      C218           28.8876061169       -9.4354920591        1.1218345710  MEMB      37              0.0000000000
      5557        65  DOPC      H18R           29.7401240302       -8.7550992968        0.9155757431  MEMB      37              0.0000000000
      5558        65  DOPC      H18S           28.3673344006       -9.6447390548        0.1625261637  MEMB      37              0.0000000000
      5559        65  DOPC      H18T           29.2990052193      -10.3936631250        1.5074489431  MEMB      37              0.0000000000
      5560        65  DOPC      C33            27.2213692360      -15.3932053259       15.0937296270  MEMB      37              0.0000000000
      5561        65  DOPC      H3X            27.1224508194      -15.8114067151       16.1213867763  MEMB      37              0.0000000000
      5562        65  DOPC      H3Y            28.1961515821      -15.7735779504       14.7109186683  MEMB      37              0.0000000000
      5563        65  DOPC      C34            26.0443797635      -15.9003879249       14.2713183827  MEMB      37              0.0000000000
      5564        65  DOPC      H4X            25.1133621009      -15.3818762523       14.6044859623  MEMB      37              0.0000000000
      5565        65  DOPC      H4Y            25.9149207068      -16.9941852572       14.4355498417  MEMB      37              0.0000000000
      5566        65  DOPC      C35            26.2078766506      -15.5928951042       12.7838172979  MEMB      37              0.0000000000
      5567        65  DOPC      H5X            25.8214098658      -14.5694458826       12.5722862813  MEMB      37              0.0000000000
      5568        65  DOPC      H5Y            25.5968182446      -16.3240491245       12.2070834644  MEMB      37              0.0000000000
      5569        65  DOPC      C36            27.6430339429      -15.6170331841       12.2522916464  MEMB      37              0.0000000000
      5570        65  DOPC      H6X            28.2067800240      -14.6992067540       12.5366546439  MEMB      37              0.0000000000
      5571        65  DOPC      H6Y            28.2097916451      -16.4907239605       12.6469555726  MEMB      37              0.0000000000
      5572        65  DOPC      C37            27.6002417737      -15.6732360844       10.7276622743  MEMB      37              0.0000000000
      5573        65  DOPC      H7X            26.9439838373      -16.5307146099       10.5006814862  MEMB      37              0.0000000000
      5574        65  DOPC      H7Y            27.1153200085      -14.7484727303       10.3529372598  MEMB      37              0.0000000000
      5575        65  DOPC      C38            29.0350053581      -15.8369229329       10.1948719463  MEMB      37              0.0000000000
      5576        65  DOPC      H8X            29.3950078112      -16.7926429124       10.6318965686  MEMB      37              0.0000000000
      5577        65  DOPC      H8Y            29.5792324948      -15.0365969666       10.7250959808  MEMB      37              0.0000000000
      5578        65  DOPC      C39            29.5549360060      -15.7372671814        8.7837070954  MEMB      37              0.0000000000
      5579        65  DOPC      H9X            30.4722344808      -16.3288594670        8.6330970194  MEMB      37              0.0000000000
      5580        65  DOPC      C310           29.1240994843      -15.0395890749        7.7229156305  MEMB      37              0.0000000000
      5581        65  DOPC      H10X           29.7604722373      -15.0562367155        6.8247310349  MEMB      37              0.0000000000
      5582        65  DOPC      C311           27.9486092062      -14.1138564347        7.6016034517  MEMB      37              0.0000000000
      5583        65  DOPC      H11X           28.1535220743      -13.2079841982        8.1978184095  MEMB      37              0.0000000000
      5584        65  DOPC      H11Y           27.0312139900      -14.5947630228        7.9994469802  MEMB      37              0.0000000000
      5585        65  DOPC      C312           27.7913807214      -13.7819882670        6.0983608755  MEMB      37              0.0000000000
      5586        65  DOPC      H12X           27.6794255383      -14.7381447590        5.5439157360  MEMB      37              0.0000000000
      5587        65  DOPC      H12Y           28.7228800795      -13.2929383710        5.7303282464  MEMB      37              0.0000000000
      5588        65  DOPC      C313           26.6150900172      -12.8928709105        5.6513623932  MEMB      37              0.0000000000
      5589        65  DOPC      H13X           26.7321835255      -11.8705487221        6.0518585674  MEMB      37              0.0000000000
      5590        65  DOPC      H13Y           26.6741174470      -12.8029037772        4.5422804147  MEMB      37              0.0000000000
      5591        65  DOPC      C314           25.2147429255      -13.4021170279        6.0162466418  MEMB      37              0.0000000000
      5592        65  DOPC      H14X           25.1328492494      -13.4656897656        7.1237219199  MEMB      37              0.0000000000
      5593        65  DOPC      H14Y           24.4599138944      -12.6570096356        5.6816557738  MEMB      37              0.0000000000
      5594        65  DOPC      C315           24.8665474108      -14.7634537138        5.3954332327  MEMB      37              0.0000000000
      5595        65  DOPC      H15X           23.9103035297      -15.1153929924        5.8375689461  MEMB      37              0.0000000000
      5596        65  DOPC      H15Y           25.6496184419      -15.4992906567        5.6718104545  MEMB      37              0.0000000000
      5597        65  DOPC      C316           24.7177526741      -14.7795511568        3.8627594865  MEMB      37              0.0000000000
      5598        65  DOPC      H16X           25.6388374179      -14.4069332286        3.3679516659  MEMB      37              0.0000000000
      5599        65  DOPC      H16Y           24.6068782921      -15.8508406656        3.5722931968  MEMB      37              0.0000000000
      5600        65  DOPC      C317           23.4871750163      -14.0231237808        3.3320046964  MEMB      37              0.0000000000
      5601        65  DOPC      H17X           23.0989921123      -14.5864670948        2.4511029431  MEMB      37              0.0000000000
      5602        65  DOPC      H17Y           22.6800790805      -14.0369358534        4.0988089997  MEMB      37              0.0000000000
      5603        65  DOPC      C318           23.7543873753      -12.5841629703        2.8742173954  MEMB      37              0.0000000000
      5604        65  DOPC      H18X           24.5265395392      -12.5701049963        2.0749829465  MEMB      37              0.0000000000
      5605        65  DOPC      H18Y           22.8240900612      -12.1298873900        2.4687623780  MEMB      37              0.0000000000
      5606        65  DOPC      H18Z           24.1113296912      -11.9482743914        3.7105253426  MEMB      37              0.0000000000
      5607        66  DOPC      N              20.9709001509       21.2920497196       18.6660312407  MEMB      38              0.0000000000
      5608        66  DOPC      C12            19.9293289035       22.3304598265       19.0463107253  MEMB      38              0.0000000000
      5609        66  DOPC      H12A           18.9541694011       21.8877257622       19.1321402096  MEMB      38              0.0000000000
      5610        66  DOPC      H12B           19.8699167750       23.0580795050       18.2397988763  MEMB      38              0.0000000000
      5611        66  DOPC      C13            21.4212573224       20.5167397125       19.8631422828  MEMB      38              0.0000000000
      5612        66  DOPC      H13A           22.2660369854       19.8843640144       19.6248760659  MEMB      38              0.0000000000
      5613        66  DOPC      H13B           21.6948670063       21.1911527117       20.6740323283  MEMB      38              0.0000000000
      5614        66  DOPC      H13C           20.6550199689       19.8301393419       20.1965451822  MEMB      38              0.0000000000
      5615        66  DOPC      C14            22.1662745913       22.0393717622       18.1383624162  MEMB      38              0.0000000000
      5616        66  DOPC      H14A           22.9523099365       21.3852850941       17.8111476488  MEMB      38              0.0000000000
      5617        66  DOPC      H14B           21.9036523000       22.7103398333       17.3327645422  MEMB      38              0.0000000000
      5618        66  DOPC      H14C           22.5633960320       22.6702249241       18.9347712445  MEMB      38              0.0000000000
      5619        66  DOPC      C15            20.5123825494       20.3044205218       17.6506205422  MEMB      38              0.0000000000
      5620        66  DOPC      H15A           20.1238362319       20.7424031285       16.7464694980  MEMB      38              0.0000000000
      5621        66  DOPC      H15B           19.7978939307       19.6064522026       18.0790220881  MEMB      38              0.0000000000
      5622        66  DOPC      H15C           21.3428118359       19.6512723081       17.3800483593  MEMB      38              0.0000000000
      5623        66  DOPC      C11            20.2027491020       23.1593179959       20.3368128673  MEMB      38              0.0000000000
      5624        66  DOPC      H11A           19.3416323399       23.8441358028       20.5260609391  MEMB      38              0.0000000000
      5625        66  DOPC      H11B           20.2416023161       22.4626482831       21.1939288494  MEMB      38              0.0000000000
      5626        66  DOPC      P              21.5306533220       25.2567641794       19.5106148434  MEMB      38              0.0000000000
      5627        66  DOPC      O13            22.8233733195       25.2865435479       18.7844956484  MEMB      38              0.0000000000
      5628        66  DOPC      O14            21.2064915304       26.3549930227       20.4504020448  MEMB      38              0.0000000000
      5629        66  DOPC      O12            21.4373715042       23.8786668567       20.2896852198  MEMB      38              0.0000000000
      5630        66  DOPC      O11            20.3319208788       25.0082509459       18.4957135156  MEMB      38              0.0000000000
      5631        66  DOPC      C1             19.7594511380       26.0415215708       17.7083919331  MEMB      38              0.0000000000
      5632        66  DOPC      HA             20.5542181522       26.6843047773       17.2763635495  MEMB      38              0.0000000000
      5633        66  DOPC      HB             19.0968030971       26.6777129206       18.3364357894  MEMB      38              0.0000000000
      5634        66  DOPC      C2             18.9073611804       25.4434112820       16.5478202663  MEMB      38              0.0000000000
      5635        66  DOPC      HS             18.1780366750       24.7508627616       17.0264627121  MEMB      38              0.0000000000
      5636        66  DOPC      O21            19.7842929568       24.7127272368       15.6727611282  MEMB      38              0.0000000000
      5637        66  DOPC      C21            19.1783851492       23.8943910859       14.8394839961  MEMB      38              0.0000000000
      5638        66  DOPC      O22            17.9785240772       23.6747498186       14.7960794138  MEMB      38              0.0000000000
      5639        66  DOPC      C22            20.2565750878       23.1022216766       14.0896221001  MEMB      38              0.0000000000
      5640        66  DOPC      H2R            20.9331293472       22.6926652286       14.8695610220  MEMB      38              0.0000000000
      5641        66  DOPC      H2S            20.8446570214       23.7976821274       13.4586571038  MEMB      38              0.0000000000
      5642        66  DOPC      C3             18.1027518068       26.5138700048       15.7341785861  MEMB      38              0.0000000000
      5643        66  DOPC      HX             17.4013212959       27.0545996129       16.4136922309  MEMB      38              0.0000000000
      5644        66  DOPC      HY             17.4531507695       25.9954004453       14.9988201261  MEMB      38              0.0000000000
      5645        66  DOPC      O31            18.9843189720       27.3889977159       14.9980440831  MEMB      38              0.0000000000
      5646        66  DOPC      C31            19.3873817725       28.4409930657       15.6772484234  MEMB      38              0.0000000000
      5647        66  DOPC      O32            18.8838723277       28.8405531804       16.7160318556  MEMB      38              0.0000000000
      5648        66  DOPC      C32            20.6494482852       29.0144462774       15.0329129724  MEMB      38              0.0000000000
      5649        66  DOPC      H2X            20.4997946188       29.0847527119       13.9383395481  MEMB      38              0.0000000000
      5650        66  DOPC      H2Y            20.7482064554       30.0360578538       15.4510991918  MEMB      38              0.0000000000
      5651        66  DOPC      C23            19.6889693846       21.9284398230       13.2485493218  MEMB      38              0.0000000000
      5652        66  DOPC      H3R            18.7231323991       21.5615673376       13.6659377018  MEMB      38              0.0000000000
      5653        66  DOPC      H3S            20.4031728610       21.0738290597       13.3011791670  MEMB      38              0.0000000000
      5654        66  DOPC      C24            19.4970792519       22.2620174472       11.7597227006  MEMB      38              0.0000000000
      5655        66  DOPC      H4R            19.0893467452       21.3605817535       11.2470414187  MEMB      38              0.0000000000
      5656        66  DOPC      H4S            20.4848213320       22.4958473588       11.3011201614  MEMB      38              0.0000000000
      5657        66  DOPC      C25            18.5557147841       23.4457020421       11.5011453047  MEMB      38              0.0000000000
      5658        66  DOPC      H5R            19.0381813671       24.3655237882       11.8977443558  MEMB      38              0.0000000000
      5659        66  DOPC      H5S            17.6021360935       23.2948194549       12.0571403860  MEMB      38              0.0000000000
      5660        66  DOPC      C26            18.2461302537       23.6359374767       10.0089911418  MEMB      38              0.0000000000
      5661        66  DOPC      H6R            17.6439430414       22.7659322409        9.6596290193  MEMB      38              0.0000000000
      5662        66  DOPC      H6S            19.1984851635       23.6282010211        9.4332084856  MEMB      38              0.0000000000
      5663        66  DOPC      C27            17.4781054182       24.9339443228        9.6901736042  MEMB      38              0.0000000000
      5664        66  DOPC      H7R            16.4816919765       24.8828403649       10.1850974717  MEMB      38              0.0000000000
      5665        66  DOPC      H7S            17.2979073730       24.9791135631        8.5916395306  MEMB      38              0.0000000000
      5666        66  DOPC      C28            18.1661085517       26.2442209145       10.1404380215  MEMB      38              0.0000000000
      5667        66  DOPC      H8R            18.1632301182       26.2787566061       11.2512148268  MEMB      38              0.0000000000
      5668        66  DOPC      H8S            17.5213164986       27.0873497707        9.8041674260  MEMB      38              0.0000000000
      5669        66  DOPC      C29            19.5844430026       26.3990213218        9.6468715932  MEMB      38              0.0000000000
      5670        66  DOPC      H9R            20.2650377769       25.5823192630        9.9349437639  MEMB      38              0.0000000000
      5671        66  DOPC      C210           20.0715555631       27.4051310758        8.8979798494  MEMB      38              0.0000000000
      5672        66  DOPC      H10R           21.1202747161       27.3575778276        8.5638828844  MEMB      38              0.0000000000
      5673        66  DOPC      C211           19.3004038933       28.5954658918        8.3887876086  MEMB      38              0.0000000000
      5674        66  DOPC      H11R           19.9870495166       29.4444023014        8.1778027714  MEMB      38              0.0000000000
      5675        66  DOPC      H11S           18.5689555970       28.9531427215        9.1490773353  MEMB      38              0.0000000000
      5676        66  DOPC      C212           18.5272850064       28.2367875495        7.1072013604  MEMB      38              0.0000000000
      5677        66  DOPC      H12R           17.9444743125       29.1214657332        6.7669655021  MEMB      38              0.0000000000
      5678        66  DOPC      H12S           17.7877927691       27.4387130267        7.3529008980  MEMB      38              0.0000000000
      5679        66  DOPC      C213           19.4119292773       27.7395876393        5.9511596396  MEMB      38              0.0000000000
      5680        66  DOPC      H13R           20.0805804549       26.9246485243        6.3100365811  MEMB      38              0.0000000000
      5681        66  DOPC      H13S           20.0581668743       28.5641566689        5.5779773084  MEMB      38              0.0000000000
      5682        66  DOPC      C214           18.5658097935       27.1575453562        4.8140808130  MEMB      38              0.0000000000
      5683        66  DOPC      H14R           17.9801094763       27.9679783961        4.3254844196  MEMB      38              0.0000000000
      5684        66  DOPC      H14S           17.8418041728       26.4325217653        5.2479943936  MEMB      38              0.0000000000
      5685        66  DOPC      C215           19.3943736830       26.4142471395        3.7661515481  MEMB      38              0.0000000000
      5686        66  DOPC      H15R           20.1261209924       25.7345918034        4.2565108488  MEMB      38              0.0000000000
      5687        66  DOPC      H15S           19.9838170542       27.1801720307        3.2243086550  MEMB      38              0.0000000000
      5688        66  DOPC      C216           18.5027117865       25.5882452139        2.8240438661  MEMB      38              0.0000000000
      5689        66  DOPC      H16R           17.7013231494       26.2535429790        2.4282161780  MEMB      38              0.0000000000
      5690        66  DOPC      H16S           18.0150667309       24.7705742398        3.3980942138  MEMB      38              0.0000000000
      5691        66  DOPC      C217           19.2525246187       24.9928782018        1.6310299654  MEMB      38              0.0000000000
      5692        66  DOPC      H17R           18.5360107735       24.4997007902        0.9394710181  MEMB      38              0.0000000000
      5693        66  DOPC      H17S           19.9533321661       24.2073912818        1.9857424931  MEMB      38              0.0000000000
      5694        66  DOPC      C218           20.0107659854       26.0796868100        0.8876238003  MEMB      38              0.0000000000
      5695        66  DOPC      H18R           19.3341746751       26.9418529271        0.7148475688  MEMB      38              0.0000000000
      5696        66  DOPC      H18S           20.4269534056       25.7413456517       -0.0784040189  MEMB      38              0.0000000000
      5697        66  DOPC      H18T           20.8574188522       26.4356944507        1.5093241886  MEMB      38              0.0000000000
      5698        66  DOPC      C33            21.9511869118       28.2486804022       15.3758232728  MEMB      38              0.0000000000
      5699        66  DOPC      H3X            21.9835837774       27.9930216207       16.4566178984  MEMB      38              0.0000000000
      5700        66  DOPC      H3Y            22.8124706850       28.9283671422       15.1878381002  MEMB      38              0.0000000000
      5701        66  DOPC      C34            22.2036885637       26.9980567326       14.5239683844  MEMB      38              0.0000000000
      5702        66  DOPC      H4X            21.3717229420       26.2735561130       14.6528304865  MEMB      38              0.0000000000
      5703        66  DOPC      H4Y            23.1338011816       26.5142822840       14.8997795156  MEMB      38              0.0000000000
      5704        66  DOPC      C35            22.3786729388       27.3028443226       13.0265800649  MEMB      38              0.0000000000
      5705        66  DOPC      H5X            22.8322184636       28.3092420578       12.8952932758  MEMB      38              0.0000000000
      5706        66  DOPC      H5Y            21.3752366776       27.3211370703       12.5418325902  MEMB      38              0.0000000000
      5707        66  DOPC      C36            23.2705204160       26.2746871112       12.3165741343  MEMB      38              0.0000000000
      5708        66  DOPC      H6X            24.2869637477       26.2961786042       12.7665350504  MEMB      38              0.0000000000
      5709        66  DOPC      H6Y            22.8373232164       25.2698834478       12.5079040946  MEMB      38              0.0000000000
      5710        66  DOPC      C37            23.3764631743       26.5278841918       10.8019738909  MEMB      38              0.0000000000
      5711        66  DOPC      H7X            22.3493301706       26.6844046028       10.4068375662  MEMB      38              0.0000000000
      5712        66  DOPC      H7Y            23.9421388215       27.4677161092       10.6354406031  MEMB      38              0.0000000000
      5713        66  DOPC      C38            24.0655021508       25.4086190428        9.9977831060  MEMB      38              0.0000000000
      5714        66  DOPC      H8X            25.1132355244       25.2885267375       10.3518972987  MEMB      38              0.0000000000
      5715        66  DOPC      H8Y            24.1259146111       25.7402605489        8.9351151618  MEMB      38              0.0000000000
      5716        66  DOPC      C39            23.3094138351       24.1135740750       10.1389247573  MEMB      38              0.0000000000
      5717        66  DOPC      H9X            23.3220506008       23.6825750747       11.1506282586  MEMB      38              0.0000000000
      5718        66  DOPC      C310           22.7001365806       23.4282008226        9.1604985318  MEMB      38              0.0000000000
      5719        66  DOPC      H10X           22.1776287032       22.4970707350        9.4169892286  MEMB      38              0.0000000000
      5720        66  DOPC      C311           22.6453683022       23.8061785916        7.7041922452  MEMB      38              0.0000000000
      5721        66  DOPC      H11X           22.5259215955       24.9033022325        7.5635139137  MEMB      38              0.0000000000
      5722        66  DOPC      H11Y           21.7607029737       23.3269314298        7.2344891496  MEMB      38              0.0000000000
      5723        66  DOPC      C312           23.9440535702       23.3360693981        7.0210855723  MEMB      38              0.0000000000
      5724        66  DOPC      H12X           24.1552684519       22.2776811273        7.3033809051  MEMB      38              0.0000000000
      5725        66  DOPC      H12Y           24.7917345591       23.9577803304        7.3921894539  MEMB      38              0.0000000000
      5726        66  DOPC      C313           23.9384544912       23.3985674989        5.4864518312  MEMB      38              0.0000000000
      5727        66  DOPC      H13X           23.7554867356       24.4485781681        5.1693236178  MEMB      38              0.0000000000
      5728        66  DOPC      H13Y           24.9531442756       23.1048935441        5.1300433988  MEMB      38              0.0000000000
      5729        66  DOPC      C314           22.8978939848       22.4523763110        4.8614737582  MEMB      38              0.0000000000
      5730        66  DOPC      H14X           23.0275163561       21.4388260572        5.3003968497  MEMB      38              0.0000000000
      5731        66  DOPC      H14Y           21.8844807035       22.8201251050        5.1353410228  MEMB      38              0.0000000000
      5732        66  DOPC      C315           22.9454901557       22.3401147275        3.3287964580  MEMB      38              0.0000000000
      5733        66  DOPC      H15X           22.0052558381       21.8594445690        2.9794441250  MEMB      38              0.0000000000
      5734        66  DOPC      H15Y           23.7814367963       21.6744863353        3.0289267041  MEMB      38              0.0000000000
      5735        66  DOPC      C316           23.1165451559       23.7029811947        2.6563317602  MEMB      38              0.0000000000
      5736        66  DOPC      H16X           22.4679200166       24.4535003196        3.1626899130  MEMB      38              0.0000000000
      5737        66  DOPC      H16Y           24.1759678960       24.0229093050        2.8002451057  MEMB      38              0.0000000000
      5738        66  DOPC      C317           22.8030834545       23.7312751610        1.1595112020  MEMB      38              0.0000000000
      5739        66  DOPC      H17X           23.2652750529       22.8669145542        0.6414147119  MEMB      38              0.0000000000
      5740        66  DOPC      H17Y           21.7107645642       23.6431279667        0.9834342658  MEMB      38              0.0000000000
      5741        66  DOPC      C318           23.3333942040       25.0255401043        0.5578443073  MEMB      38              0.0000000000
      5742        66  DOPC      H18X           22.6768763537       25.8787547898        0.8069035950  MEMB      38              0.0000000000
      5743        66  DOPC      H18Y           24.3244856651       25.2567118746        1.0019977464  MEMB      38              0.0000000000
      5744        66  DOPC      H18Z           23.4347042786       24.9523304702       -0.5452489862  MEMB      38              0.0000000000
      5745        67  DOPC      N             -29.0311429729       -1.7360422611       20.7041194155  MEMB      39              0.0000000000
      5746        67  DOPC      C12           -29.3896674337       -1.1848314333       19.3349537722  MEMB      39              0.0000000000
      5747        67  DOPC      H12A          -29.1989646369       -0.1135073122       19.3459182762  MEMB      39              0.0000000000
      5748        67  DOPC      H12B          -30.4527673445       -1.3401058858       19.1812517233  MEMB      39              0.0000000000
      5749        67  DOPC      C13           -27.5653527773       -1.5196019572       20.9480288710  MEMB      39              0.0000000000
      5750        67  DOPC      H13A          -27.3080953425       -0.4638981394       20.9066825241  MEMB      39              0.0000000000
      5751        67  DOPC      H13B          -27.2811143917       -1.8486908436       21.9392655881  MEMB      39              0.0000000000
      5752        67  DOPC      H13C          -26.9841772026       -2.0738354306       20.2184476817  MEMB      39              0.0000000000
      5753        67  DOPC      C14           -29.3012295916       -3.2005424918       20.8097111021  MEMB      39              0.0000000000
      5754        67  DOPC      H14A          -30.1914673246       -3.4977792423       20.2652681614  MEMB      39              0.0000000000
      5755        67  DOPC      H14B          -28.5092806641       -3.7782176876       20.3190891128  MEMB      39              0.0000000000
      5756        67  DOPC      H14C          -29.3542959324       -3.5509125957       21.8294978963  MEMB      39              0.0000000000
      5757        67  DOPC      C15           -29.7978005676       -1.0244816318       21.7595307326  MEMB      39              0.0000000000
      5758        67  DOPC      H15A          -30.8724734604       -1.1615397888       21.6729092276  MEMB      39              0.0000000000
      5759        67  DOPC      H15B          -29.6285058270        0.0465321070       21.6857483200  MEMB      39              0.0000000000
      5760        67  DOPC      H15C          -29.4694994069       -1.3477528431       22.7388556482  MEMB      39              0.0000000000
      5761        67  DOPC      C11           -28.6678082254       -1.7960627389       18.1118925097  MEMB      39              0.0000000000
      5762        67  DOPC      H11A          -28.8519715822       -1.1398266081       17.2304914368  MEMB      39              0.0000000000
      5763        67  DOPC      H11B          -27.5633288932       -1.8163043297       18.2694523625  MEMB      39              0.0000000000
      5764        67  DOPC      P             -28.4028863657       -4.4194975274       17.6505429205  MEMB      39              0.0000000000
      5765        67  DOPC      O13           -29.1627970258       -5.3098407116       16.7644505744  MEMB      39              0.0000000000
      5766        67  DOPC      O14           -27.9879621566       -4.9234739059       18.9750410805  MEMB      39              0.0000000000
      5767        67  DOPC      O12           -29.2260377873       -3.0721471744       17.8488151728  MEMB      39              0.0000000000
      5768        67  DOPC      O11           -27.1055094594       -3.9579745048       16.8640321652  MEMB      39              0.0000000000
      5769        67  DOPC      C1            -26.5792315572       -4.8263426277       15.8433973948  MEMB      39              0.0000000000
      5770        67  DOPC      HA            -27.2943094278       -5.6151462317       15.4967912824  MEMB      39              0.0000000000
      5771        67  DOPC      HB            -25.6812971163       -5.3569174806       16.2310282339  MEMB      39              0.0000000000
      5772        67  DOPC      C2            -26.1919893640       -4.0668541769       14.5456901271  MEMB      39              0.0000000000
      5773        67  DOPC      HS            -25.2632819942       -3.5176398944       14.7768346403  MEMB      39              0.0000000000
      5774        67  DOPC      O21           -27.2337058221       -3.1383957653       14.1875636502  MEMB      39              0.0000000000
      5775        67  DOPC      C21           -27.1640142977       -2.4969410140       13.0506699861  MEMB      39              0.0000000000
      5776        67  DOPC      O22           -26.2284399301       -2.4731797801       12.2676780804  MEMB      39              0.0000000000
      5777        67  DOPC      C22           -28.4651722040       -1.7135691135       12.8824984260  MEMB      39              0.0000000000
      5778        67  DOPC      H2R           -28.5138282094       -0.9966799425       13.7293235869  MEMB      39              0.0000000000
      5779        67  DOPC      H2S           -29.3265285063       -2.4067559749       12.9574483524  MEMB      39              0.0000000000
      5780        67  DOPC      C3            -25.9203929498       -5.1094022841       13.4237904092  MEMB      39              0.0000000000
      5781        67  DOPC      HX            -25.1939970525       -5.8407446890       13.8604948499  MEMB      39              0.0000000000
      5782        67  DOPC      HY            -25.4269083410       -4.6500818964       12.5431543047  MEMB      39              0.0000000000
      5783        67  DOPC      O31           -27.1614967154       -5.7457686853       13.0452249451  MEMB      39              0.0000000000
      5784        67  DOPC      C31           -26.9813349467       -6.8588189059       12.3509813681  MEMB      39              0.0000000000
      5785        67  DOPC      O32           -25.8983587331       -7.2675137785       11.9694884001  MEMB      39              0.0000000000
      5786        67  DOPC      C32           -28.3153935656       -7.5769640950       12.1272806752  MEMB      39              0.0000000000
      5787        67  DOPC      H2X           -28.0872539433       -8.6428839655       11.9371774545  MEMB      39              0.0000000000
      5788        67  DOPC      H2Y           -28.8738062032       -7.4875200117       13.0829079477  MEMB      39              0.0000000000
      5789        67  DOPC      C23           -28.4741894294       -0.9406509079       11.5506231978  MEMB      39              0.0000000000
      5790        67  DOPC      H3R           -27.4893428470       -0.4362088930       11.4213730210  MEMB      39              0.0000000000
      5791        67  DOPC      H3S           -29.2397680388       -0.1340147094       11.5781003651  MEMB      39              0.0000000000
      5792        67  DOPC      C24           -28.7325198827       -1.8341175299       10.3285585011  MEMB      39              0.0000000000
      5793        67  DOPC      H4R           -29.8107064495       -1.7705611471       10.0614971768  MEMB      39              0.0000000000
      5794        67  DOPC      H4S           -28.5139173008       -2.8998590005       10.5649317613  MEMB      39              0.0000000000
      5795        67  DOPC      C25           -27.8518957058       -1.3978005083        9.1475753960  MEMB      39              0.0000000000
      5796        67  DOPC      H5R           -26.7878609516       -1.6307306289        9.3810122686  MEMB      39              0.0000000000
      5797        67  DOPC      H5S           -27.9460698673       -0.2923384349        9.0557524920  MEMB      39              0.0000000000
      5798        67  DOPC      C26           -28.2440634108       -2.0229426992        7.8068795410  MEMB      39              0.0000000000
      5799        67  DOPC      H6R           -29.3532387400       -2.1481116008        7.7970828641  MEMB      39              0.0000000000
      5800        67  DOPC      H6S           -27.8131479686       -3.0270749190        7.6689526841  MEMB      39              0.0000000000
      5801        67  DOPC      C27           -27.8830208025       -1.1615037067        6.5876098666  MEMB      39              0.0000000000
      5802        67  DOPC      H7R           -28.4621730291       -0.2272484283        6.7331114357  MEMB      39              0.0000000000
      5803        67  DOPC      H7S           -28.2805304298       -1.6724963798        5.6881878067  MEMB      39              0.0000000000
      5804        67  DOPC      C28           -26.4020005978       -0.7874031522        6.3145450687  MEMB      39              0.0000000000
      5805        67  DOPC      H8R           -26.0845376280       -0.0231104259        7.0440061601  MEMB      39              0.0000000000
      5806        67  DOPC      H8S           -26.3835344801       -0.2604235633        5.3349676981  MEMB      39              0.0000000000
      5807        67  DOPC      C29           -25.4141159572       -1.9221189701        6.3116150289  MEMB      39              0.0000000000
      5808        67  DOPC      H9R           -25.2166149476       -2.3470347958        7.3095868258  MEMB      39              0.0000000000
      5809        67  DOPC      C210          -24.7737307494       -2.4517257000        5.2474475656  MEMB      39              0.0000000000
      5810        67  DOPC      H10R          -24.1423630441       -3.3316568390        5.4239064490  MEMB      39              0.0000000000
      5811        67  DOPC      C211          -24.8759195321       -2.0530038130        3.7926004924  MEMB      39              0.0000000000
      5812        67  DOPC      H11R          -23.8688020762       -2.1177675179        3.3221878090  MEMB      39              0.0000000000
      5813        67  DOPC      H11S          -25.2096728585       -0.9979110523        3.6805056510  MEMB      39              0.0000000000
      5814        67  DOPC      C212          -25.8157750592       -2.9568527899        2.9706385168  MEMB      39              0.0000000000
      5815        67  DOPC      H12R          -25.3784913891       -3.9777917225        2.9045168977  MEMB      39              0.0000000000
      5816        67  DOPC      H12S          -25.8845604822       -2.5609270883        1.9323506326  MEMB      39              0.0000000000
      5817        67  DOPC      C213          -27.2290440826       -3.0551186924        3.5659850024  MEMB      39              0.0000000000
      5818        67  DOPC      H13R          -27.6456983404       -2.0316272782        3.6825073583  MEMB      39              0.0000000000
      5819        67  DOPC      H13S          -27.1537662687       -3.5173415058        4.5763121184  MEMB      39              0.0000000000
      5820        67  DOPC      C214          -28.1895931000       -3.9147446974        2.7411173863  MEMB      39              0.0000000000
      5821        67  DOPC      H14R          -27.6716162487       -4.8462439740        2.4668883863  MEMB      39              0.0000000000
      5822        67  DOPC      H14S          -28.4331290334       -3.3999705635        1.7901532331  MEMB      39              0.0000000000
      5823        67  DOPC      C215          -29.4521717129       -4.3561957641        3.5008764418  MEMB      39              0.0000000000
      5824        67  DOPC      H15R          -29.1475878912       -4.9133250237        4.4150680364  MEMB      39              0.0000000000
      5825        67  DOPC      H15S          -30.0063142056       -5.0733349353        2.8520368504  MEMB      39              0.0000000000
      5826        67  DOPC      C216          -30.3956447952       -3.2148126615        3.8980037905  MEMB      39              0.0000000000
      5827        67  DOPC      H16R          -29.9352790199       -2.5986150306        4.6991280587  MEMB      39              0.0000000000
      5828        67  DOPC      H16S          -31.3242610178       -3.6537936614        4.3254008527  MEMB      39              0.0000000000
      5829        67  DOPC      C217          -30.7751213135       -2.3140558327        2.7173581201  MEMB      39              0.0000000000
      5830        67  DOPC      H17R          -29.8912359692       -1.6929893542        2.4541587188  MEMB      39              0.0000000000
      5831        67  DOPC      H17S          -31.5687196247       -1.6096362967        3.0528835957  MEMB      39              0.0000000000
      5832        67  DOPC      C218          -31.2536382518       -3.0901142292        1.4806644519  MEMB      39              0.0000000000
      5833        67  DOPC      H18R          -31.8827885056       -3.9527897079        1.7789565467  MEMB      39              0.0000000000
      5834        67  DOPC      H18S          -30.4028586861       -3.5032681062        0.9054279084  MEMB      39              0.0000000000
      5835        67  DOPC      H18T          -31.8492826851       -2.4357546502        0.8105765543  MEMB      39              0.0000000000
      5836        67  DOPC      C33           -29.1941451645       -6.9827705069       11.0110650938  MEMB      39              0.0000000000
      5837        67  DOPC      H3X           -29.2521984606       -5.8829986049       11.1794410109  MEMB      39              0.0000000000
      5838        67  DOPC      H3Y           -30.2276240556       -7.3880528289       11.0962201762  MEMB      39              0.0000000000
      5839        67  DOPC      C34           -28.6915056043       -7.2785342533        9.5949590069  MEMB      39              0.0000000000
      5840        67  DOPC      H4X           -29.1039984344       -8.2414325952        9.2194034075  MEMB      39              0.0000000000
      5841        67  DOPC      H4Y           -27.5905366367       -7.4231913007        9.6318605168  MEMB      39              0.0000000000
      5842        67  DOPC      C35           -29.0492565374       -6.1271114780        8.6428642561  MEMB      39              0.0000000000
      5843        67  DOPC      H5X           -29.2134603440       -5.1899831585        9.2238411810  MEMB      39              0.0000000000
      5844        67  DOPC      H5Y           -30.0024429118       -6.3621673346        8.1263629499  MEMB      39              0.0000000000
      5845        67  DOPC      C36           -27.9555121729       -5.8178660670        7.6225027191  MEMB      39              0.0000000000
      5846        67  DOPC      H6X           -27.7666294565       -6.7368391517        7.0268602180  MEMB      39              0.0000000000
      5847        67  DOPC      H6Y           -28.3281606455       -5.0473298973        6.9072166188  MEMB      39              0.0000000000
      5848        67  DOPC      C37           -26.6493487678       -5.3021101905        8.2658576154  MEMB      39              0.0000000000
      5849        67  DOPC      H7X           -26.8188338433       -4.3262086509        8.7672609897  MEMB      39              0.0000000000
      5850        67  DOPC      H7Y           -26.2930530712       -5.9720377281        9.0773299638  MEMB      39              0.0000000000
      5851        67  DOPC      C38           -25.5507685016       -5.1549549581        7.2118882829  MEMB      39              0.0000000000
      5852        67  DOPC      H8X           -24.7138832306       -4.5356805182        7.6026845493  MEMB      39              0.0000000000
      5853        67  DOPC      H8Y           -25.9797314352       -4.6338379033        6.3282737317  MEMB      39              0.0000000000
      5854        67  DOPC      C39           -25.0733172964       -6.5369052381        6.8851652048  MEMB      39              0.0000000000
      5855        67  DOPC      H9X           -24.5073183235       -7.0282913733        7.6915719980  MEMB      39              0.0000000000
      5856        67  DOPC      C310          -25.2845768371       -7.2072840926        5.7469748276  MEMB      39              0.0000000000
      5857        67  DOPC      H10X          -24.8505118291       -8.2057984658        5.6402894882  MEMB      39              0.0000000000
      5858        67  DOPC      C311          -26.0249866158       -6.7882453238        4.5136134070  MEMB      39              0.0000000000
      5859        67  DOPC      H11X          -26.4502200908       -5.7611454333        4.5649019260  MEMB      39              0.0000000000
      5860        67  DOPC      H11Y          -26.8611397456       -7.4859177587        4.2999977487  MEMB      39              0.0000000000
      5861        67  DOPC      C312          -24.9795771663       -6.8652569848        3.3985903919  MEMB      39              0.0000000000
      5862        67  DOPC      H12X          -24.2969307372       -7.7417980130        3.4850843184  MEMB      39              0.0000000000
      5863        67  DOPC      H12Y          -24.3553217432       -5.9478570677        3.5014237767  MEMB      39              0.0000000000
      5864        67  DOPC      C313          -25.5892172745       -6.8861164649        2.0027911139  MEMB      39              0.0000000000
      5865        67  DOPC      H13X          -26.4245863816       -6.1760772275        1.9642271901  MEMB      39              0.0000000000
      5866        67  DOPC      H13Y          -24.8308749614       -6.5059521213        1.2856006831  MEMB      39              0.0000000000
      5867        67  DOPC      C314          -26.0802755916       -8.2493007919        1.5054500216  MEMB      39              0.0000000000
      5868        67  DOPC      H14X          -25.3696942635       -9.0512179018        1.8080626261  MEMB      39              0.0000000000
      5869        67  DOPC      H14Y          -27.0652403790       -8.4970889176        1.9618853151  MEMB      39              0.0000000000
      5870        67  DOPC      C315          -26.1953331056       -8.2085247292       -0.0249711351  MEMB      39              0.0000000000
      5871        67  DOPC      H15X          -26.5396220254       -9.1940433368       -0.3985827523  MEMB      39              0.0000000000
      5872        67  DOPC      H15Y          -25.1714334504       -8.0455457359       -0.4374432273  MEMB      39              0.0000000000
      5873        67  DOPC      C316          -27.0896027877       -7.0702650711       -0.5658647523  MEMB      39              0.0000000000
      5874        67  DOPC      H16X          -26.5438861799       -6.1056549665       -0.4592559798  MEMB      39              0.0000000000
      5875        67  DOPC      H16Y          -27.2438279974       -7.2277139014       -1.6558764066  MEMB      39              0.0000000000
      5876        67  DOPC      C317          -28.4584878773       -6.9150625797        0.1204194171  MEMB      39              0.0000000000
      5877        67  DOPC      H17X          -29.0344609665       -7.8565045101        0.0197353352  MEMB      39              0.0000000000
      5878        67  DOPC      H17Y          -28.3210222037       -6.7422201042        1.2097945912  MEMB      39              0.0000000000
      5879        67  DOPC      C318          -29.2881877798       -5.7548688933       -0.4341176556  MEMB      39              0.0000000000
      5880        67  DOPC      H18X          -29.5313441575       -5.9200634684       -1.5042526808  MEMB      39              0.0000000000
      5881        67  DOPC      H18Y          -30.2403223440       -5.6534996549        0.1311519712  MEMB      39              0.0000000000
      5882        67  DOPC      H18Z          -28.7250796988       -4.8008409726       -0.3422541635  MEMB      39              0.0000000000
      5883        68  DOPC      N              -5.5290141397      -31.1275905804       19.5279805065  MEMB      40              0.0000000000
      5884        68  DOPC      C12            -6.9683039384      -31.5884210812       19.5865342456  MEMB      40              0.0000000000
      5885        68  DOPC      H12A           -7.1956499717      -31.7580808436       20.6343321459  MEMB      40              0.0000000000
      5886        68  DOPC      H12B           -7.0244004182      -32.5525561260       19.0957993979  MEMB      40              0.0000000000
      5887        68  DOPC      C13            -5.3002014936      -30.1588336471       20.6587650548  MEMB      40              0.0000000000
      5888        68  DOPC      H13A           -6.0028031039      -29.3345025322       20.5646951381  MEMB      40              0.0000000000
      5889        68  DOPC      H13B           -5.4625992331      -30.6215607685       21.6267690743  MEMB      40              0.0000000000
      5890        68  DOPC      H13C           -4.2948743820      -29.7734638708       20.6598488677  MEMB      40              0.0000000000
      5891        68  DOPC      C14            -5.2201425236      -30.4850095686       18.2045119460  MEMB      40              0.0000000000
      5892        68  DOPC      H14A           -4.1803436197      -30.1777768155       18.1448341688  MEMB      40              0.0000000000
      5893        68  DOPC      H14B           -5.4151287705      -31.1607667758       17.3798067308  MEMB      40              0.0000000000
      5894        68  DOPC      H14C           -5.8411680553      -29.5974087274       18.0438437204  MEMB      40              0.0000000000
      5895        68  DOPC      C15            -4.6494186885      -32.3223968345       19.7314289516  MEMB      40              0.0000000000
      5896        68  DOPC      H15A           -4.7275656364      -32.7445940432       20.7386405070  MEMB      40              0.0000000000
      5897        68  DOPC      H15B           -3.6113215680      -32.0887262580       19.5653585761  MEMB      40              0.0000000000
      5898        68  DOPC      H15C           -4.8781584191      -33.1408227679       19.0508344288  MEMB      40              0.0000000000
      5899        68  DOPC      C11            -8.0492631916      -30.6469347034       19.0027367274  MEMB      40              0.0000000000
      5900        68  DOPC      H11A           -7.9140255278      -30.5926905731       17.8950319080  MEMB      40              0.0000000000
      5901        68  DOPC      H11B           -9.0471825917      -31.1037664470       19.1915495941  MEMB      40              0.0000000000
      5902        68  DOPC      P              -8.4423585430      -28.0763850804       18.8274545826  MEMB      40              0.0000000000
      5903        68  DOPC      O13            -8.1774521139      -26.9062849320       19.6831758530  MEMB      40              0.0000000000
      5904        68  DOPC      O14            -9.8401437953      -28.2796600286       18.3974164875  MEMB      40              0.0000000000
      5905        68  DOPC      O12            -7.9931696986      -29.3641140672       19.6232369455  MEMB      40              0.0000000000
      5906        68  DOPC      O11            -7.3997418609      -28.0684210655       17.6333760826  MEMB      40              0.0000000000
      5907        68  DOPC      C1             -7.7254212367      -27.5416706817       16.3458705082  MEMB      40              0.0000000000
      5908        68  DOPC      HA             -7.1820851959      -26.5871227467       16.1858342810  MEMB      40              0.0000000000
      5909        68  DOPC      HB             -8.8200998722      -27.3438973289       16.2171673422  MEMB      40              0.0000000000
      5910        68  DOPC      C2             -7.2938474294      -28.4964965522       15.2038792772  MEMB      40              0.0000000000
      5911        68  DOPC      HS             -7.6528372524      -28.0676456716       14.2341405223  MEMB      40              0.0000000000
      5912        68  DOPC      O21            -7.7684878304      -29.8499431067       15.4621630339  MEMB      40              0.0000000000
      5913        68  DOPC      C21            -8.9368786465      -30.0540588779       14.8477029590  MEMB      40              0.0000000000
      5914        68  DOPC      O22            -9.4774462628      -29.2397255619       14.1249417525  MEMB      40              0.0000000000
      5915        68  DOPC      C22            -9.4468512313      -31.4878227140       15.0451610477  MEMB      40              0.0000000000
      5916        68  DOPC      H2R           -10.5361789268      -31.4033343125       15.2515292202  MEMB      40              0.0000000000
      5917        68  DOPC      H2S            -8.9555878920      -31.9461726249       15.9236213368  MEMB      40              0.0000000000
      5918        68  DOPC      C3             -5.7557771677      -28.4919388674       15.0097512836  MEMB      40              0.0000000000
      5919        68  DOPC      HX             -5.2114295275      -28.7150285662       15.9520554441  MEMB      40              0.0000000000
      5920        68  DOPC      HY             -5.4787351401      -27.4563568528       14.7014803497  MEMB      40              0.0000000000
      5921        68  DOPC      O31            -5.4642896532      -29.3790002242       13.9248392583  MEMB      40              0.0000000000
      5922        68  DOPC      C31            -4.4073654095      -30.1838115020       14.0043359518  MEMB      40              0.0000000000
      5923        68  DOPC      O32            -3.6373025283      -30.2793909248       14.9377455190  MEMB      40              0.0000000000
      5924        68  DOPC      C32            -4.3897877104      -30.9718441994       12.6854096998  MEMB      40              0.0000000000
      5925        68  DOPC      H2X            -5.3798066690      -31.4565504836       12.6579126687  MEMB      40              0.0000000000
      5926        68  DOPC      H2Y            -4.3065664677      -30.1921395572       11.8968917765  MEMB      40              0.0000000000
      5927        68  DOPC      C23            -9.2485317668      -32.3353852498       13.7550559580  MEMB      40              0.0000000000
      5928        68  DOPC      H3R            -9.9270593693      -31.9619048355       12.9628186382  MEMB      40              0.0000000000
      5929        68  DOPC      H3S            -9.5488909366      -33.3899187434       13.9613554775  MEMB      40              0.0000000000
      5930        68  DOPC      C24            -7.8022971251      -32.2994388013       13.2243473844  MEMB      40              0.0000000000
      5931        68  DOPC      H4R            -7.2091443202      -32.9788835482       13.8848556948  MEMB      40              0.0000000000
      5932        68  DOPC      H4S            -7.3783178718      -31.2824865092       13.3298180717  MEMB      40              0.0000000000
      5933        68  DOPC      C25            -7.5630820919      -32.7352191748       11.7550834662  MEMB      40              0.0000000000
      5934        68  DOPC      H5R            -8.1339128954      -33.6670575029       11.5512507589  MEMB      40              0.0000000000
      5935        68  DOPC      H5S            -6.4909126257      -33.0281679816       11.7280608204  MEMB      40              0.0000000000
      5936        68  DOPC      C26            -7.7583034859      -31.7046039317       10.5871736977  MEMB      40              0.0000000000
      5937        68  DOPC      H6R            -8.8383643013      -31.6578277603       10.3506780069  MEMB      40              0.0000000000
      5938        68  DOPC      H6S            -7.2829184020      -32.1623609032        9.6915311773  MEMB      40              0.0000000000
      5939        68  DOPC      C27            -7.1926927042      -30.2538856038       10.7677490910  MEMB      40              0.0000000000
      5940        68  DOPC      H7R            -6.2620152058      -30.3479280941       11.3302600616  MEMB      40              0.0000000000
      5941        68  DOPC      H7S            -7.8826893957      -29.6738575330       11.4145022774  MEMB      40              0.0000000000
      5942        68  DOPC      C28            -6.7446549154      -29.4315921208        9.4973439084  MEMB      40              0.0000000000
      5943        68  DOPC      H8R            -7.3879844679      -29.7811294813        8.6710952756  MEMB      40              0.0000000000
      5944        68  DOPC      H8S            -5.7266379475      -29.7514271932        9.2238689541  MEMB      40              0.0000000000
      5945        68  DOPC      C29            -6.7460873853      -27.9007924328        9.5142616303  MEMB      40              0.0000000000
      5946        68  DOPC      H9R            -7.6627317897      -27.5217902785        9.9943998571  MEMB      40              0.0000000000
      5947        68  DOPC      C210           -5.8049215613      -26.9488101147        9.1801377481  MEMB      40              0.0000000000
      5948        68  DOPC      H10R           -6.0794344096      -25.9143845197        9.4355746422  MEMB      40              0.0000000000
      5949        68  DOPC      C211           -4.3529204738      -26.9940954333        8.6618590983  MEMB      40              0.0000000000
      5950        68  DOPC      H11R           -3.9545072700      -27.9888456347        8.7763833722  MEMB      40              0.0000000000
      5951        68  DOPC      H11S           -3.9174082617      -26.5459863738        9.5793812631  MEMB      40              0.0000000000
      5952        68  DOPC      C212           -3.5852301123      -26.0372837305        7.5990933569  MEMB      40              0.0000000000
      5953        68  DOPC      H12R           -2.9073837928      -25.4861536802        8.2942009390  MEMB      40              0.0000000000
      5954        68  DOPC      H12S           -4.3442671063      -25.2852157876        7.2957386486  MEMB      40              0.0000000000
      5955        68  DOPC      C213           -2.5834781649      -26.1689585405        6.3151832239  MEMB      40              0.0000000000
      5956        68  DOPC      H13R           -1.7400310427      -25.5618760502        6.7322157729  MEMB      40              0.0000000000
      5957        68  DOPC      H13S           -2.9973503470      -25.5152733372        5.5250725022  MEMB      40              0.0000000000
      5958        68  DOPC      C214           -1.6002633647      -27.2086540465        5.5876955429  MEMB      40              0.0000000000
      5959        68  DOPC      H14R           -0.7621760060      -27.5907125013        6.1876686447  MEMB      40              0.0000000000
      5960        68  DOPC      H14S           -1.0386998970      -26.4425952429        4.9728747206  MEMB      40              0.0000000000
      5961        68  DOPC      C215           -2.0603222360      -28.0193856298        4.3332215185  MEMB      40              0.0000000000
      5962        68  DOPC      H15R           -1.7447236362      -27.5067173325        3.4057914424  MEMB      40              0.0000000000
      5963        68  DOPC      H15S           -3.1479985320      -27.8959706649        4.3643611454  MEMB      40              0.0000000000
      5964        68  DOPC      C216           -1.8646329297      -29.5357579500        4.0144254862  MEMB      40              0.0000000000
      5965        68  DOPC      H16R           -1.9432752920      -30.1870836107        4.9112374527  MEMB      40              0.0000000000
      5966        68  DOPC      H16S           -0.8705512802      -29.7055311253        3.5506967649  MEMB      40              0.0000000000
      5967        68  DOPC      C217           -3.0051420933      -29.9247103870        3.0171302463  MEMB      40              0.0000000000
      5968        68  DOPC      H17R           -3.3492275390      -28.9808564786        2.5628646601  MEMB      40              0.0000000000
      5969        68  DOPC      H17S           -3.8929869526      -30.3244270247        3.5563568689  MEMB      40              0.0000000000
      5970        68  DOPC      C218           -2.7061833765      -30.7631443453        1.7773966011  MEMB      40              0.0000000000
      5971        68  DOPC      H18R           -3.3814361787      -30.4786561289        0.9407729500  MEMB      40              0.0000000000
      5972        68  DOPC      H18S           -2.8956893689      -31.8350895098        1.9840542377  MEMB      40              0.0000000000
      5973        68  DOPC      H18T           -1.6670004567      -30.5965353748        1.4278294058  MEMB      40              0.0000000000
      5974        68  DOPC      C33            -3.3927570111      -32.1018273274       12.3403582882  MEMB      40              0.0000000000
      5975        68  DOPC      H3X            -3.8557289956      -33.0808129762       12.5771607076  MEMB      40              0.0000000000
      5976        68  DOPC      H3Y            -2.4357879857      -32.0052035894       12.8925111625  MEMB      40              0.0000000000
      5977        68  DOPC      C34            -3.0688967131      -32.1753575011       10.8447797303  MEMB      40              0.0000000000
      5978        68  DOPC      H4X            -2.4041561368      -33.0501141796       10.6873064182  MEMB      40              0.0000000000
      5979        68  DOPC      H4Y            -2.5177140323      -31.2707416280       10.5384464993  MEMB      40              0.0000000000
      5980        68  DOPC      C35            -4.2579591084      -32.3196226183        9.8967099609  MEMB      40              0.0000000000
      5981        68  DOPC      H5X            -4.7334365604      -31.3346594822        9.7718683504  MEMB      40              0.0000000000
      5982        68  DOPC      H5Y            -5.0214535643      -32.9972716134       10.3216908418  MEMB      40              0.0000000000
      5983        68  DOPC      C36            -3.7581500730      -32.8889694858        8.5666109076  MEMB      40              0.0000000000
      5984        68  DOPC      H6X            -2.8920844860      -32.3245629323        8.1924701269  MEMB      40              0.0000000000
      5985        68  DOPC      H6Y            -3.3423778755      -33.8746618479        8.8305739461  MEMB      40              0.0000000000
      5986        68  DOPC      C37            -4.8247340081      -33.1422901350        7.5010753208  MEMB      40              0.0000000000
      5987        68  DOPC      H7X            -5.4379970947      -32.2327061781        7.3070798936  MEMB      40              0.0000000000
      5988        68  DOPC      H7Y            -4.3231085118      -33.4124408740        6.5397383731  MEMB      40              0.0000000000
      5989        68  DOPC      C38            -5.7238210236      -34.2744670099        8.0235048383  MEMB      40              0.0000000000
      5990        68  DOPC      H8X            -6.6912092160      -33.8335063714        8.3403728199  MEMB      40              0.0000000000
      5991        68  DOPC      H8Y            -5.2624293444      -34.6717923100        8.9528958120  MEMB      40              0.0000000000
      5992        68  DOPC      C39            -5.8906693021      -35.4725340980        7.1462132913  MEMB      40              0.0000000000
      5993        68  DOPC      H9X            -5.0632547123      -36.1909807026        7.2108630772  MEMB      40              0.0000000000
      5994        68  DOPC      C310           -6.9022320148      -35.6979300019        6.3032034525  MEMB      40              0.0000000000
      5995        68  DOPC      H10X           -6.9317412764      -36.6481324206        5.7471190564  MEMB      40              0.0000000000
      5996        68  DOPC      C311           -8.0684127543      -34.7769176988        6.0721417265  MEMB      40              0.0000000000
      5997        68  DOPC      H11X           -8.0369438984      -33.8512129639        6.6909864063  MEMB      40              0.0000000000
      5998        68  DOPC      H11Y           -9.0162663721      -35.2963509869        6.3368498989  MEMB      40              0.0000000000
      5999        68  DOPC      C312           -8.1008491196      -34.3786297228        4.5878036193  MEMB      40              0.0000000000
      6000        68  DOPC      H12X           -9.1623994136      -34.1861905557        4.3411256522  MEMB      40              0.0000000000
      6001        68  DOPC      H12Y           -7.7846724575      -35.2193030575        3.9308722750  MEMB      40              0.0000000000
      6002        68  DOPC      C313           -7.2762827050      -33.1255545415        4.2278926214  MEMB      40              0.0000000000
      6003        68  DOPC      H13X           -7.0295980481      -32.5360450854        5.1383609712  MEMB      40              0.0000000000
      6004        68  DOPC      H13Y           -6.3096477592      -33.4628947225        3.7917009795  MEMB      40              0.0000000000
      6005        68  DOPC      C314           -8.0271707340      -32.2323944254        3.2233732880  MEMB      40              0.0000000000
      6006        68  DOPC      H14X           -8.6920291287      -32.8955803937        2.6218510855  MEMB      40              0.0000000000
      6007        68  DOPC      H14Y           -8.6854945304      -31.5144369642        3.7576118911  MEMB      40              0.0000000000
      6008        68  DOPC      C315           -7.1368305674      -31.4731082927        2.2308333408  MEMB      40              0.0000000000
      6009        68  DOPC      H15X           -7.6589309279      -31.4394897573        1.2484714117  MEMB      40              0.0000000000
      6010        68  DOPC      H15Y           -6.1780613800      -32.0080640829        2.0799113447  MEMB      40              0.0000000000
      6011        68  DOPC      C316           -6.8192146924      -30.0392558949        2.6523694592  MEMB      40              0.0000000000
      6012        68  DOPC      H16X           -7.7455898382      -29.4812937142        2.9052433645  MEMB      40              0.0000000000
      6013        68  DOPC      H16Y           -6.1956380426      -30.0889294347        3.5760287847  MEMB      40              0.0000000000
      6014        68  DOPC      C317           -6.0340631602      -29.2821359628        1.5734127957  MEMB      40              0.0000000000
      6015        68  DOPC      H17X           -5.3723658007      -28.5868756845        2.1253931846  MEMB      40              0.0000000000
      6016        68  DOPC      H17Y           -5.3736216994      -29.9812228485        1.0212993162  MEMB      40              0.0000000000
      6017        68  DOPC      C318           -6.8695582861      -28.4756549606        0.5755215917  MEMB      40              0.0000000000
      6018        68  DOPC      H18X           -6.2190730873      -27.8382031461       -0.0608731677  MEMB      40              0.0000000000
      6019        68  DOPC      H18Y           -7.4265900724      -29.1588782982       -0.0925579131  MEMB      40              0.0000000000
      6020        68  DOPC      H18Z           -7.5935178197      -27.8183695643        1.1035065699  MEMB      40              0.0000000000
      6021        69  DOPC      N              27.7913448306       16.5206313141       21.1325703392  MEMB      41              0.0000000000
      6022        69  DOPC      C12            26.5060678204       16.7706359625       20.3399565691  MEMB      41              0.0000000000
      6023        69  DOPC      H12A           26.2145472823       17.8108696916       20.4567637094  MEMB      41              0.0000000000
      6024        69  DOPC      H12B           25.7104291979       16.1719954407       20.7493206718  MEMB      41              0.0000000000
      6025        69  DOPC      C13            28.3769463347       15.1605276342       20.8695164893  MEMB      41              0.0000000000
      6026        69  DOPC      H13A           29.3045939819       15.0279292909       21.4310512205  MEMB      41              0.0000000000
      6027        69  DOPC      H13B           27.7476775078       14.3339320092       21.1960103306  MEMB      41              0.0000000000
      6028        69  DOPC      H13C           28.6189773277       15.0455708917       19.8211412211  MEMB      41              0.0000000000
      6029        69  DOPC      C14            27.6449913987       16.6736404300       22.6142019590  MEMB      41              0.0000000000
      6030        69  DOPC      H14A           26.7396082138       16.2541895181       23.0181488679  MEMB      41              0.0000000000
      6031        69  DOPC      H14B           28.4613801969       16.1464604251       23.1137705957  MEMB      41              0.0000000000
      6032        69  DOPC      H14C           27.7733652551       17.7041390820       22.9394688654  MEMB      41              0.0000000000
      6033        69  DOPC      C15            28.8184113114       17.5330241869       20.6782663177  MEMB      41              0.0000000000
      6034        69  DOPC      H15A           28.5604466605       18.5603703168       20.9190143573  MEMB      41              0.0000000000
      6035        69  DOPC      H15B           28.8883776898       17.5110211070       19.5863976616  MEMB      41              0.0000000000
      6036        69  DOPC      H15C           29.7882332906       17.3330112498       21.1072848721  MEMB      41              0.0000000000
      6037        69  DOPC      C11            26.5218248034       16.4950049865       18.8059009703  MEMB      41              0.0000000000
      6038        69  DOPC      H11A           26.6253074411       15.4014981961       18.6345297288  MEMB      41              0.0000000000
      6039        69  DOPC      H11B           25.5462523874       16.7843638854       18.3488531357  MEMB      41              0.0000000000
      6040        69  DOPC      P              27.5575526537       18.3993632304       17.2258326339  MEMB      41              0.0000000000
      6041        69  DOPC      O13            28.5863308495       19.3355456746       17.7164882404  MEMB      41              0.0000000000
      6042        69  DOPC      O14            26.1737294810       18.8995980259       17.1049139575  MEMB      41              0.0000000000
      6043        69  DOPC      O12            27.6071380129       17.1404513872       18.1717817150  MEMB      41              0.0000000000
      6044        69  DOPC      O11            28.0524842466       17.7769631268       15.8647210264  MEMB      41              0.0000000000
      6045        69  DOPC      C1             27.9544218701       16.3851228434       15.5709321527  MEMB      41              0.0000000000
      6046        69  DOPC      HA             27.3373989465       15.8057742548       16.2952825694  MEMB      41              0.0000000000
      6047        69  DOPC      HB             28.9703349069       15.9356910915       15.5879473615  MEMB      41              0.0000000000
      6048        69  DOPC      C2             27.2945701946       16.1792716989       14.1871670953  MEMB      41              0.0000000000
      6049        69  DOPC      HS             27.4231706788       15.1086519553       13.9089732842  MEMB      41              0.0000000000
      6050        69  DOPC      O21            27.8602009643       17.0239397542       13.1805645892  MEMB      41              0.0000000000
      6051        69  DOPC      C21            29.1504774596       16.9589934423       13.0354777945  MEMB      41              0.0000000000
      6052        69  DOPC      O22            29.8643250133       16.0107236076       13.3203798178  MEMB      41              0.0000000000
      6053        69  DOPC      C22            29.6189046724       18.2863110626       12.4440808868  MEMB      41              0.0000000000
      6054        69  DOPC      H2R            29.6041020129       19.0077157310       13.2903832416  MEMB      41              0.0000000000
      6055        69  DOPC      H2S            28.8885623953       18.6258177159       11.6805538612  MEMB      41              0.0000000000
      6056        69  DOPC      C3             25.7725926303       16.4852258953       14.2300387405  MEMB      41              0.0000000000
      6057        69  DOPC      HX             25.2906868538       15.7695821858       14.9314365354  MEMB      41              0.0000000000
      6058        69  DOPC      HY             25.3867238475       16.2952624492       13.2070210658  MEMB      41              0.0000000000
      6059        69  DOPC      O31            25.4574237029       17.8191064903       14.6658511544  MEMB      41              0.0000000000
      6060        69  DOPC      C31            25.5233762034       18.7552361597       13.7390680290  MEMB      41              0.0000000000
      6061        69  DOPC      O32            25.6467039241       18.5588032689       12.5418795800  MEMB      41              0.0000000000
      6062        69  DOPC      C32            25.3002925015       20.1415749705       14.3524622964  MEMB      41              0.0000000000
      6063        69  DOPC      H2X            24.3521848934       20.0884603824       14.9268139656  MEMB      41              0.0000000000
      6064        69  DOPC      H2Y            26.1263027967       20.3559512020       15.0578715511  MEMB      41              0.0000000000
      6065        69  DOPC      C23            31.0389018941       18.2100924274       11.8445658065  MEMB      41              0.0000000000
      6066        69  DOPC      H3R            31.6934892663       17.5672591329       12.4763482517  MEMB      41              0.0000000000
      6067        69  DOPC      H3S            31.4834000408       19.2305622424       11.8528247214  MEMB      41              0.0000000000
      6068        69  DOPC      C24            31.0261565061       17.7021260576       10.3992260715  MEMB      41              0.0000000000
      6069        69  DOPC      H4R            30.2859303522       16.8767593568       10.3094643060  MEMB      41              0.0000000000
      6070        69  DOPC      H4S            32.0251472188       17.2815727681       10.1439628022  MEMB      41              0.0000000000
      6071        69  DOPC      C25            30.7060560608       18.8154020070        9.3898684397  MEMB      41              0.0000000000
      6072        69  DOPC      H5R            31.5560178299       19.5372427372        9.3992214896  MEMB      41              0.0000000000
      6073        69  DOPC      H5S            29.7949131973       19.3723399480        9.7003026798  MEMB      41              0.0000000000
      6074        69  DOPC      C26            30.5124170389       18.2793932715        7.9657393080  MEMB      41              0.0000000000
      6075        69  DOPC      H6R            31.0400808216       17.3067202116        7.8575540602  MEMB      41              0.0000000000
      6076        69  DOPC      H6S            30.9912751627       18.9906900619        7.2563346708  MEMB      41              0.0000000000
      6077        69  DOPC      C27            29.0458139171       18.1248347795        7.5245198164  MEMB      41              0.0000000000
      6078        69  DOPC      H7R            29.0502835363       17.7008061519        6.4968414257  MEMB      41              0.0000000000
      6079        69  DOPC      H7S            28.5699748999       19.1126276295        7.4272403044  MEMB      41              0.0000000000
      6080        69  DOPC      C28            28.1160435682       17.3419127923        8.4658453427  MEMB      41              0.0000000000
      6081        69  DOPC      H8R            27.0647571233       17.5635424352        8.1596327887  MEMB      41              0.0000000000
      6082        69  DOPC      H8S            28.2036588721       17.7126104322        9.5091400620  MEMB      41              0.0000000000
      6083        69  DOPC      C29            28.3785839783       15.8684549198        8.3680152919  MEMB      41              0.0000000000
      6084        69  DOPC      H9R            28.9294899957       15.4060674714        9.2018931175  MEMB      41              0.0000000000
      6085        69  DOPC      C210           27.9963007777       15.1291664529        7.3183868543  MEMB      41              0.0000000000
      6086        69  DOPC      H10R           28.2230636171       14.0538654058        7.3115485518  MEMB      41              0.0000000000
      6087        69  DOPC      C211           27.2627087091       15.6511847621        6.1060462969  MEMB      41              0.0000000000
      6088        69  DOPC      H11R           27.8027692927       15.3346220311        5.1915969555  MEMB      41              0.0000000000
      6089        69  DOPC      H11S           27.2225176726       16.7621007399        6.0534560502  MEMB      41              0.0000000000
      6090        69  DOPC      C212           25.8105255345       15.1495033549        6.0695506864  MEMB      41              0.0000000000
      6091        69  DOPC      H12R           25.2634923860       15.5656278186        6.9452459866  MEMB      41              0.0000000000
      6092        69  DOPC      H12S           25.8049994560       14.0401708673        6.1665206029  MEMB      41              0.0000000000
      6093        69  DOPC      C213           25.0905642698       15.5511769791        4.7708893666  MEMB      41              0.0000000000
      6094        69  DOPC      H13R           25.8303797743       16.0539951475        4.1072143634  MEMB      41              0.0000000000
      6095        69  DOPC      H13S           24.2901627576       16.2926678624        4.9836100178  MEMB      41              0.0000000000
      6096        69  DOPC      C214           24.5190166241       14.3399825719        4.0194855797  MEMB      41              0.0000000000
      6097        69  DOPC      H14R           23.5435779078       14.0468389260        4.4600275054  MEMB      41              0.0000000000
      6098        69  DOPC      H14S           25.1968343657       13.4674722035        4.1585649340  MEMB      41              0.0000000000
      6099        69  DOPC      C215           24.3660077590       14.5270209709        2.5036996866  MEMB      41              0.0000000000
      6100        69  DOPC      H15R           23.6652440697       13.7354201105        2.1644681975  MEMB      41              0.0000000000
      6101        69  DOPC      H15S           25.3056980436       14.3662357579        1.9530779128  MEMB      41              0.0000000000
      6102        69  DOPC      C216           23.8592020139       15.8808670801        2.0286942801  MEMB      41              0.0000000000
      6103        69  DOPC      H16R           24.6897055241       16.6202899634        1.9610223642  MEMB      41              0.0000000000
      6104        69  DOPC      H16S           23.1573380915       16.2581619262        2.7877435832  MEMB      41              0.0000000000
      6105        69  DOPC      C217           23.1764308361       15.7114107675        0.6675296636  MEMB      41              0.0000000000
      6106        69  DOPC      H17R           22.6260616533       14.7447865939        0.6346413322  MEMB      41              0.0000000000
      6107        69  DOPC      H17S           23.9764589178       15.6149469006       -0.0973241041  MEMB      41              0.0000000000
      6108        69  DOPC      C218           22.1789752524       16.8172790663        0.3288119323  MEMB      41              0.0000000000
      6109        69  DOPC      H18R           21.2151919249       16.6284144837        0.8434039374  MEMB      41              0.0000000000
      6110        69  DOPC      H18S           21.9635253458       16.8477248349       -0.7575617209  MEMB      41              0.0000000000
      6111        69  DOPC      H18T           22.5674211324       17.8071981278        0.6459725284  MEMB      41              0.0000000000
      6112        69  DOPC      C33            25.2080113874       21.2238461016       13.2516943029  MEMB      41              0.0000000000
      6113        69  DOPC      H3X            24.7668484304       22.1594174919       13.6597697269  MEMB      41              0.0000000000
      6114        69  DOPC      H3Y            24.5173956735       20.8558373786       12.4570368251  MEMB      41              0.0000000000
      6115        69  DOPC      C34            26.5636160673       21.5666702401       12.6054683219  MEMB      41              0.0000000000
      6116        69  DOPC      H4X            27.0627364411       20.6097235964       12.3246801986  MEMB      41              0.0000000000
      6117        69  DOPC      H4Y            27.2251549857       22.0813201918       13.3345030104  MEMB      41              0.0000000000
      6118        69  DOPC      C35            26.3766164015       22.4133791997       11.3332127705  MEMB      41              0.0000000000
      6119        69  DOPC      H5X            26.3739726862       23.4974152550       11.5732223144  MEMB      41              0.0000000000
      6120        69  DOPC      H5Y            25.3694387423       22.1594138703       10.9267829124  MEMB      41              0.0000000000
      6121        69  DOPC      C36            27.3740285769       22.0917609663       10.2071228677  MEMB      41              0.0000000000
      6122        69  DOPC      H6X            28.3844092623       22.4735100526       10.4547070362  MEMB      41              0.0000000000
      6123        69  DOPC      H6Y            27.4480317459       20.9816572319       10.1355891688  MEMB      41              0.0000000000
      6124        69  DOPC      C37            26.9205681318       22.6256687670        8.8294642932  MEMB      41              0.0000000000
      6125        69  DOPC      H7X            25.8101453104       22.6822766017        8.8559427667  MEMB      41              0.0000000000
      6126        69  DOPC      H7Y            27.3001898323       23.6589599864        8.6751884090  MEMB      41              0.0000000000
      6127        69  DOPC      C38            27.2940907788       21.7169745410        7.6354514701  MEMB      41              0.0000000000
      6128        69  DOPC      H8X            26.8787903402       22.1307160087        6.6910601858  MEMB      41              0.0000000000
      6129        69  DOPC      H8Y            26.8134956525       20.7254677478        7.8087479926  MEMB      41              0.0000000000
      6130        69  DOPC      C39            28.7840591800       21.5559844741        7.5601210834  MEMB      41              0.0000000000
      6131        69  DOPC      H9X            29.2197146027       21.3267363914        8.5428766749  MEMB      41              0.0000000000
      6132        69  DOPC      C310           29.5965698308       21.4373384034        6.4930690565  MEMB      41              0.0000000000
      6133        69  DOPC      H10X           30.6632202902       21.2545271549        6.6977263168  MEMB      41              0.0000000000
      6134        69  DOPC      C311           29.2641666844       21.4228233374        5.0215932841  MEMB      41              0.0000000000
      6135        69  DOPC      H11X           29.1482732997       22.4552734176        4.6272257671  MEMB      41              0.0000000000
      6136        69  DOPC      H11Y           28.3192075984       20.8698006176        4.8284222015  MEMB      41              0.0000000000
      6137        69  DOPC      C312           30.4368594118       20.7284349487        4.2877063285  MEMB      41              0.0000000000
      6138        69  DOPC      H12X           30.7077031231       19.7824322088        4.8148466855  MEMB      41              0.0000000000
      6139        69  DOPC      H12Y           31.3278697037       21.3914447381        4.3357832602  MEMB      41              0.0000000000
      6140        69  DOPC      C313           30.2056504269       20.3506773340        2.8115110944  MEMB      41              0.0000000000
      6141        69  DOPC      H13X           31.0491213462       19.6802437191        2.5301870743  MEMB      41              0.0000000000
      6142        69  DOPC      H13Y           29.2763850755       19.7487304214        2.7177909611  MEMB      41              0.0000000000
      6143        69  DOPC      C314           30.1838722578       21.5566671815        1.8493473193  MEMB      41              0.0000000000
      6144        69  DOPC      H14X           29.1495245530       21.9607247422        1.8010075303  MEMB      41              0.0000000000
      6145        69  DOPC      H14Y           30.8048344931       22.3463182804        2.3216321834  MEMB      41              0.0000000000
      6146        69  DOPC      C315           30.7100688836       21.4003265872        0.3936912613  MEMB      41              0.0000000000
      6147        69  DOPC      H15X           31.3621242867       22.2752179261        0.1814254521  MEMB      41              0.0000000000
      6148        69  DOPC      H15Y           29.8533695493       21.4887885228       -0.3090398699  MEMB      41              0.0000000000
      6149        69  DOPC      C316           31.4776486108       20.1268335486       -0.0033101547  MEMB      41              0.0000000000
      6150        69  DOPC      H16X           31.8362519009       20.2746138561       -1.0519374125  MEMB      41              0.0000000000
      6151        69  DOPC      H16Y           32.3919888684       19.9808297584        0.6078089985  MEMB      41              0.0000000000
      6152        69  DOPC      C317           30.5658447076       18.8951312202       -0.0042985105  MEMB      41              0.0000000000
      6153        69  DOPC      H17X           31.1478483679       17.9602020884        0.1519273691  MEMB      41              0.0000000000
      6154        69  DOPC      H17Y           29.8429604654       18.9556140443        0.8374367253  MEMB      41              0.0000000000
      6155        69  DOPC      C318           29.7724830595       18.8223861672       -1.3040619530  MEMB      41              0.0000000000
      6156        69  DOPC      H18X           28.7819703094       19.2925250310       -1.1498224494  MEMB      41              0.0000000000
      6157        69  DOPC      H18Y           30.2982798488       19.3801008952       -2.1090332807  MEMB      41              0.0000000000
      6158        69  DOPC      H18Z           29.6154617407       17.7789434189       -1.6355379616  MEMB      41              0.0000000000
      6159        70  DOPC      N              16.4062919742       29.9447290237       19.7929407494  MEMB      42              0.0000000000
      6160        70  DOPC      C12            16.0447612946       30.0520288802       18.3160131066  MEMB      42              0.0000000000
      6161        70  DOPC      H12A           16.7518111921       29.4490391602       17.7419810679  MEMB      42              0.0000000000
      6162        70  DOPC      H12B           16.1858119490       31.0712564242       17.9815507842  MEMB      42              0.0000000000
      6163        70  DOPC      C13            15.5152551198       30.8030576305       20.6365048850  MEMB      42              0.0000000000
      6164        70  DOPC      H13A           15.5629735506       30.4936796133       21.6761823502  MEMB      42              0.0000000000
      6165        70  DOPC      H13B           15.7974065271       31.8454623300       20.5325878733  MEMB      42              0.0000000000
      6166        70  DOPC      H13C           14.4849337619       30.6931680850       20.2915211656  MEMB      42              0.0000000000
      6167        70  DOPC      C14            17.7911134366       30.4217671693       19.9796581731  MEMB      42              0.0000000000
      6168        70  DOPC      H14A           18.4552889179       29.9943804310       19.2336535352  MEMB      42              0.0000000000
      6169        70  DOPC      H14B           17.8561018739       31.5024002036       19.8816188605  MEMB      42              0.0000000000
      6170        70  DOPC      H14C           18.1839959977       30.1561332286       20.9524792333  MEMB      42              0.0000000000
      6171        70  DOPC      C15            16.2613133576       28.5447755300       20.2704123748  MEMB      42              0.0000000000
      6172        70  DOPC      H15A           16.6862930404       28.4066772846       21.2656362634  MEMB      42              0.0000000000
      6173        70  DOPC      H15B           16.7260809555       27.8528378267       19.5887172472  MEMB      42              0.0000000000
      6174        70  DOPC      H15C           15.1988979510       28.3229745347       20.3552127018  MEMB      42              0.0000000000
      6175        70  DOPC      C11            14.6131245304       29.6297387205       17.9209504279  MEMB      42              0.0000000000
      6176        70  DOPC      H11A           14.4961961401       29.7554016279       16.8158699923  MEMB      42              0.0000000000
      6177        70  DOPC      H11B           14.5309432330       28.5375816576       18.1467813634  MEMB      42              0.0000000000
      6178        70  DOPC      P              12.1143266744       29.9417042636       18.3578257303  MEMB      42              0.0000000000
      6179        70  DOPC      O13            11.1819664154       30.4878252077       19.3888826182  MEMB      42              0.0000000000
      6180        70  DOPC      O14            12.1256817023       28.4933750635       18.1282976087  MEMB      42              0.0000000000
      6181        70  DOPC      O12            13.6134562559       30.3911862793       18.6276274511  MEMB      42              0.0000000000
      6182        70  DOPC      O11            11.7711943537       30.7181147543       17.0288555214  MEMB      42              0.0000000000
      6183        70  DOPC      C1             12.3803487227       31.9917016733       16.7866149802  MEMB      42              0.0000000000
      6184        70  DOPC      HA             13.3798719275       32.1179405655       17.2660946252  MEMB      42              0.0000000000
      6185        70  DOPC      HB             11.7183238285       32.8093727462       17.1500545167  MEMB      42              0.0000000000
      6186        70  DOPC      C2             12.6334319032       32.2067999274       15.2815344543  MEMB      42              0.0000000000
      6187        70  DOPC      HS             11.6174837257       32.3577694246       14.8453927996  MEMB      42              0.0000000000
      6188        70  DOPC      O21            13.3130112114       31.0534288897       14.7229894740  MEMB      42              0.0000000000
      6189        70  DOPC      C21            12.9162207900       30.7459759777       13.4893947895  MEMB      42              0.0000000000
      6190        70  DOPC      O22            12.0763887963       31.3533215260       12.8541103280  MEMB      42              0.0000000000
      6191        70  DOPC      C22            13.6495009871       29.5156730808       12.9581956656  MEMB      42              0.0000000000
      6192        70  DOPC      H2R            12.9618678195       28.6521387580       13.0897577733  MEMB      42              0.0000000000
      6193        70  DOPC      H2S            14.5678151356       29.3345043935       13.5480776061  MEMB      42              0.0000000000
      6194        70  DOPC      C3             13.4768422210       33.5055430911       15.1067364866  MEMB      42              0.0000000000
      6195        70  DOPC      HX             14.4771386119       33.3113344487       15.5532310193  MEMB      42              0.0000000000
      6196        70  DOPC      HY             13.0030304194       34.3286121752       15.6913402138  MEMB      42              0.0000000000
      6197        70  DOPC      O31            13.6529219864       33.8693422234       13.7292183141  MEMB      42              0.0000000000
      6198        70  DOPC      C31            12.5357796916       34.2974843359       13.1534037074  MEMB      42              0.0000000000
      6199        70  DOPC      O32            11.5467146328       34.7155516636       13.7300371493  MEMB      42              0.0000000000
      6200        70  DOPC      C32            12.6826428292       34.1511838101       11.6507718294  MEMB      42              0.0000000000
      6201        70  DOPC      H2X            13.5427355958       33.4904582913       11.4358246134  MEMB      42              0.0000000000
      6202        70  DOPC      H2Y            11.7689534082       33.6377554519       11.2872735952  MEMB      42              0.0000000000
      6203        70  DOPC      C23            13.9818732243       29.6714183555       11.4547305412  MEMB      42              0.0000000000
      6204        70  DOPC      H3R            13.0557612199       29.8693702533       10.8688978314  MEMB      42              0.0000000000
      6205        70  DOPC      H3S            14.4059386715       28.7091805223       11.0895413833  MEMB      42              0.0000000000
      6206        70  DOPC      C24            15.0086049330       30.7754339815       11.1742081132  MEMB      42              0.0000000000
      6207        70  DOPC      H4R            15.8786661784       30.6142635548       11.8523195538  MEMB      42              0.0000000000
      6208        70  DOPC      H4S            14.5754191569       31.7639100643       11.4190570330  MEMB      42              0.0000000000
      6209        70  DOPC      C25            15.5225654192       30.7708641529        9.7264847513  MEMB      42              0.0000000000
      6210        70  DOPC      H5R            15.7021170082       29.7136088244        9.4250406769  MEMB      42              0.0000000000
      6211        70  DOPC      H5S            16.5050472765       31.2929218038        9.6974996166  MEMB      42              0.0000000000
      6212        70  DOPC      C26            14.5996062556       31.4340750175        8.6890275575  MEMB      42              0.0000000000
      6213        70  DOPC      H6R            14.5298812806       32.5278086940        8.8816094232  MEMB      42              0.0000000000
      6214        70  DOPC      H6S            13.5737638836       31.0190725682        8.7774266920  MEMB      42              0.0000000000
      6215        70  DOPC      C27            15.1375814516       31.1851846228        7.2679946584  MEMB      42              0.0000000000
      6216        70  DOPC      H7R            15.3756912246       30.0998532760        7.1749890754  MEMB      42              0.0000000000
      6217        70  DOPC      H7S            16.0904913578       31.7524999269        7.1650734597  MEMB      42              0.0000000000
      6218        70  DOPC      C28            14.1756378269       31.5517617303        6.1216522992  MEMB      42              0.0000000000
      6219        70  DOPC      H8R            13.8453176290       32.6032287019        6.2602329216  MEMB      42              0.0000000000
      6220        70  DOPC      H8S            13.2651709427       30.9149930459        6.1888596490  MEMB      42              0.0000000000
      6221        70  DOPC      C29            14.8755196884       31.4119717742        4.7881993443  MEMB      42              0.0000000000
      6222        70  DOPC      H9R            15.6164314950       32.2060883332        4.5991244405  MEMB      42              0.0000000000
      6223        70  DOPC      C210           14.6845313172       30.4819323846        3.8252709015  MEMB      42              0.0000000000
      6224        70  DOPC      H10R           15.3335206146       30.5268269461        2.9382586213  MEMB      42              0.0000000000
      6225        70  DOPC      C211           13.7187522989       29.3272637986        3.8151980556  MEMB      42              0.0000000000
      6226        70  DOPC      H11R           12.8564000273       29.4983593629        4.4949731804  MEMB      42              0.0000000000
      6227        70  DOPC      H11S           14.3135796259       28.4942527002        4.2397335866  MEMB      42              0.0000000000
      6228        70  DOPC      C212           13.1803014207       28.7368986387        2.4753208641  MEMB      42              0.0000000000
      6229        70  DOPC      H12R           12.9327622696       27.7009292891        2.7676184305  MEMB      42              0.0000000000
      6230        70  DOPC      H12S           13.9608220807       28.6786314337        1.6892441370  MEMB      42              0.0000000000
      6231        70  DOPC      C213           11.8377289742       29.2434535126        1.9165410386  MEMB      42              0.0000000000
      6232        70  DOPC      H13R           12.0255191480       30.0082424900        1.1304450981  MEMB      42              0.0000000000
      6233        70  DOPC      H13S           11.2550312748       29.7051757994        2.7414297166  MEMB      42              0.0000000000
      6234        70  DOPC      C214           10.9242582883       28.1586256592        1.3152656771  MEMB      42              0.0000000000
      6235        70  DOPC      H14R           10.6726921056       27.4019660925        2.0933757861  MEMB      42              0.0000000000
      6236        70  DOPC      H14S           11.4830205750       27.6488224340        0.5072096993  MEMB      42              0.0000000000
      6237        70  DOPC      C215            9.6155364348       28.7634027071        0.7717639295  MEMB      42              0.0000000000
      6238        70  DOPC      H15R            9.7233210958       29.8688489194        0.7892662307  MEMB      42              0.0000000000
      6239        70  DOPC      H15S            8.7927911036       28.5232704916        1.4829904301  MEMB      42              0.0000000000
      6240        70  DOPC      C216            9.1898852988       28.3230516814       -0.6450174696  MEMB      42              0.0000000000
      6241        70  DOPC      H16R            8.1060588169       28.0764449008       -0.6100824122  MEMB      42              0.0000000000
      6242        70  DOPC      H16S            9.7267128034       27.4212335897       -0.9838244754  MEMB      42              0.0000000000
      6243        70  DOPC      C217            9.3987935897       29.3718183667       -1.7373415648  MEMB      42              0.0000000000
      6244        70  DOPC      H17R           10.3605879339       29.1686665445       -2.2396043417  MEMB      42              0.0000000000
      6245        70  DOPC      H17S            9.5161542589       30.3228922811       -1.2084056814  MEMB      42              0.0000000000
      6246        70  DOPC      C218            8.2876107621       29.5867311043       -2.7797518023  MEMB      42              0.0000000000
      6247        70  DOPC      H18R            8.0148564695       30.6585937220       -2.8369179842  MEMB      42              0.0000000000
      6248        70  DOPC      H18S            7.3625945913       29.0500976720       -2.5181469706  MEMB      42              0.0000000000
      6249        70  DOPC      H18T            8.6117804207       29.2710073131       -3.7867948962  MEMB      42              0.0000000000
      6250        70  DOPC      C33            12.8882542019       35.4979976787       10.9416236223  MEMB      42              0.0000000000
      6251        70  DOPC      H3X            13.8063479408       35.4027067013       10.3224619158  MEMB      42              0.0000000000
      6252        70  DOPC      H3Y            13.0554131234       36.3181283673       11.6779107979  MEMB      42              0.0000000000
      6253        70  DOPC      C34            11.7016055461       35.8497380672       10.0421722512  MEMB      42              0.0000000000
      6254        70  DOPC      H4X            11.6874540350       36.9040348815        9.7277750673  MEMB      42              0.0000000000
      6255        70  DOPC      H4Y            10.8196276060       35.7367335890       10.6997580595  MEMB      42              0.0000000000
      6256        70  DOPC      C35            11.6075048575       34.9430286549        8.8004181582  MEMB      42              0.0000000000
      6257        70  DOPC      H5X            11.1404879640       34.0178631745        9.1871538642  MEMB      42              0.0000000000
      6258        70  DOPC      H5Y            12.6256442874       34.6723711261        8.4415206538  MEMB      42              0.0000000000
      6259        70  DOPC      C36            10.8145581491       35.5040305489        7.5949379884  MEMB      42              0.0000000000
      6260        70  DOPC      H6X            10.0263118693       36.2014653651        7.9507359651  MEMB      42              0.0000000000
      6261        70  DOPC      H6Y            11.5113258986       36.1155595573        6.9790216700  MEMB      42              0.0000000000
      6262        70  DOPC      C37            10.1504081184       34.4435106405        6.6699572783  MEMB      42              0.0000000000
      6263        70  DOPC      H7X             9.0600239620       34.3729174616        6.8627800379  MEMB      42              0.0000000000
      6264        70  DOPC      H7Y            10.2002699065       34.8393029912        5.6390106040  MEMB      42              0.0000000000
      6265        70  DOPC      C38            10.7756676565       33.0294308124        6.7956927008  MEMB      42              0.0000000000
      6266        70  DOPC      H8X            10.6455860686       32.6811499597        7.8417722598  MEMB      42              0.0000000000
      6267        70  DOPC      H8Y            11.8652275376       33.1551562116        6.6336866620  MEMB      42              0.0000000000
      6268        70  DOPC      C39            10.2767558820       31.8908993221        5.9470644562  MEMB      42              0.0000000000
      6269        70  DOPC      H9X             9.8311397126       31.0583338908        6.5168604351  MEMB      42              0.0000000000
      6270        70  DOPC      C310           10.2859829753       31.8201464372        4.6067819652  MEMB      42              0.0000000000
      6271        70  DOPC      H10X            9.8306077992       30.9419171028        4.1220510573  MEMB      42              0.0000000000
      6272        70  DOPC      C311           10.7886311156       32.8698995375        3.6471598582  MEMB      42              0.0000000000
      6273        70  DOPC      H11X           10.9714853495       33.8443062703        4.1437988506  MEMB      42              0.0000000000
      6274        70  DOPC      H11Y            9.9581042935       33.0122922710        2.9290681866  MEMB      42              0.0000000000
      6275        70  DOPC      C312           12.0916074793       32.5993504526        2.8655106022  MEMB      42              0.0000000000
      6276        70  DOPC      H12X           12.1983112079       31.5235623767        2.6764959391  MEMB      42              0.0000000000
      6277        70  DOPC      H12Y           12.9519624975       32.9071491256        3.4969641297  MEMB      42              0.0000000000
      6278        70  DOPC      C313           12.1876757436       33.3432571446        1.5182271591  MEMB      42              0.0000000000
      6279        70  DOPC      H13X           11.1719941460       33.3329448235        1.0951837305  MEMB      42              0.0000000000
      6280        70  DOPC      H13Y           12.4189260834       34.4048571618        1.7212021126  MEMB      42              0.0000000000
      6281        70  DOPC      C314           13.1638117646       32.7586873564        0.4662275388  MEMB      42              0.0000000000
      6282        70  DOPC      H14X           12.6739008668       31.8488513345        0.0412567818  MEMB      42              0.0000000000
      6283        70  DOPC      H14Y           13.3155136577       33.4589831385       -0.3833056945  MEMB      42              0.0000000000
      6284        70  DOPC      C315           14.5197232965       32.2948361695        1.0287553289  MEMB      42              0.0000000000
      6285        70  DOPC      H15X           14.7291540738       31.2774235071        0.6216446537  MEMB      42              0.0000000000
      6286        70  DOPC      H15Y           14.4314694194       32.2269134962        2.1203233991  MEMB      42              0.0000000000
      6287        70  DOPC      C316           15.7640186579       33.1501863800        0.7710538829  MEMB      42              0.0000000000
      6288        70  DOPC      H16X           16.6548675505       32.4920245882        0.9147713415  MEMB      42              0.0000000000
      6289        70  DOPC      H16Y           15.7596208394       33.5138744248       -0.2704112760  MEMB      42              0.0000000000
      6290        70  DOPC      C317           15.9320548439       34.3457546530        1.7069895707  MEMB      42              0.0000000000
      6291        70  DOPC      H17X           15.6140398111       34.0811983560        2.7377379404  MEMB      42              0.0000000000
      6292        70  DOPC      H17Y           17.0125886070       34.6016025552        1.7648230755  MEMB      42              0.0000000000
      6293        70  DOPC      C318           15.1798372204       35.5633750988        1.1923080519  MEMB      42              0.0000000000
      6294        70  DOPC      H18X           15.3692083311       35.7216986962        0.1106072408  MEMB      42              0.0000000000
      6295        70  DOPC      H18Y           14.0939172760       35.4138166522        1.3113928953  MEMB      42              0.0000000000
      6296        70  DOPC      H18Z           15.4773906461       36.4806918692        1.7348458362  MEMB      42              0.0000000000
      6297        71  DOPC      N              23.9521062235      -17.8966634466       17.0585685701  MEMB      43              0.0000000000
      6298        71  DOPC      C12            25.0776640260      -17.1177494886       17.7310211031  MEMB      43              0.0000000000
      6299        71  DOPC      H12A           24.6757137796      -16.2195676789       18.1850975442  MEMB      43              0.0000000000
      6300        71  DOPC      H12B           25.8134922977      -16.8268535883       16.9932639478  MEMB      43              0.0000000000
      6301        71  DOPC      C13            23.4004848669      -17.1839860132       15.8584231585  MEMB      43              0.0000000000
      6302        71  DOPC      H13A           22.5524432722      -17.7229185413       15.4458839903  MEMB      43              0.0000000000
      6303        71  DOPC      H13B           23.0669850128      -16.1840124266       16.1127114960  MEMB      43              0.0000000000
      6304        71  DOPC      H13C           24.1469860156      -17.1357574880       15.0729054264  MEMB      43              0.0000000000
      6305        71  DOPC      C14            22.8538181081      -18.1006702751       18.0607124512  MEMB      43              0.0000000000
      6306        71  DOPC      H14A           22.4198797926      -17.1698414799       18.4253008119  MEMB      43              0.0000000000
      6307        71  DOPC      H14B           22.0692239186      -18.7311439528       17.6804821757  MEMB      43              0.0000000000
      6308        71  DOPC      H14C           23.2695036890      -18.5352306075       18.9729115635  MEMB      43              0.0000000000
      6309        71  DOPC      C15            24.5023944895      -19.2215220285       16.6414912649  MEMB      43              0.0000000000
      6310        71  DOPC      H15A           25.3415716444      -19.1236120423       15.9614165643  MEMB      43              0.0000000000
      6311        71  DOPC      H15B           23.7588471061      -19.8429597382       16.1637195528  MEMB      43              0.0000000000
      6312        71  DOPC      H15C           24.8783921985      -19.7472451356       17.5240099639  MEMB      43              0.0000000000
      6313        71  DOPC      C11            25.8391102564      -17.8307614863       18.8747575166  MEMB      43              0.0000000000
      6314        71  DOPC      H11A           26.2550946326      -18.8081564616       18.5499165406  MEMB      43              0.0000000000
      6315        71  DOPC      H11B           26.6966564733      -17.1681174045       19.1174478338  MEMB      43              0.0000000000
      6316        71  DOPC      P              25.7358381766      -18.3433105235       21.4064477350  MEMB      43              0.0000000000
      6317        71  DOPC      O13            24.7761499995      -18.3142594469       22.5344646759  MEMB      43              0.0000000000
      6318        71  DOPC      O14            27.0174248183      -17.6093369934       21.5204637699  MEMB      43              0.0000000000
      6319        71  DOPC      O12            25.0020628767      -17.9933034292       20.0177026109  MEMB      43              0.0000000000
      6320        71  DOPC      O11            26.1434913231      -19.8587212508       21.1064708163  MEMB      43              0.0000000000
      6321        71  DOPC      C1             25.1331999201      -20.8562863666       20.8563431855  MEMB      43              0.0000000000
      6322        71  DOPC      HA             24.2141246074      -20.4231859748       20.3957140804  MEMB      43              0.0000000000
      6323        71  DOPC      HB             24.8198373485      -21.3267330952       21.8165919303  MEMB      43              0.0000000000
      6324        71  DOPC      C2             25.6851024299      -21.9575187077       19.8968474929  MEMB      43              0.0000000000
      6325        71  DOPC      HS             26.4683790598      -22.5124707998       20.4660369712  MEMB      43              0.0000000000
      6326        71  DOPC      O21            26.2544489249      -21.2913283787       18.7609011338  MEMB      43              0.0000000000
      6327        71  DOPC      C21            27.1325681729      -21.9600712843       18.0348235419  MEMB      43              0.0000000000
      6328        71  DOPC      O22            27.4936994637      -23.1133713076       18.1909029120  MEMB      43              0.0000000000
      6329        71  DOPC      C22            27.7020176126      -20.9650635201       16.9953279119  MEMB      43              0.0000000000
      6330        71  DOPC      H2R            28.5765196528      -20.4893892596       17.4774259641  MEMB      43              0.0000000000
      6331        71  DOPC      H2S            26.9666521253      -20.1651011509       16.8120713200  MEMB      43              0.0000000000
      6332        71  DOPC      C3             24.6305040732      -23.0045025634       19.4337386528  MEMB      43              0.0000000000
      6333        71  DOPC      HX             24.1860205180      -23.4428247101       20.3538960918  MEMB      43              0.0000000000
      6334        71  DOPC      HY             25.1350840409      -23.8512484464       18.9116770289  MEMB      43              0.0000000000
      6335        71  DOPC      O31            23.5548637763      -22.4497409153       18.6453922870  MEMB      43              0.0000000000
      6336        71  DOPC      C31            23.7820824345      -22.3691478321       17.3554652177  MEMB      43              0.0000000000
      6337        71  DOPC      O32            24.8321614172      -22.5270422783       16.7806376600  MEMB      43              0.0000000000
      6338        71  DOPC      C32            22.4882424279      -22.0476608699       16.6386329412  MEMB      43              0.0000000000
      6339        71  DOPC      H2X            21.6547221989      -22.6414635351       17.0574123548  MEMB      43              0.0000000000
      6340        71  DOPC      H2Y            22.2877308991      -20.9685718376       16.7920404115  MEMB      43              0.0000000000
      6341        71  DOPC      C23            28.1046200706      -21.6134756707       15.6428697285  MEMB      43              0.0000000000
      6342        71  DOPC      H3R            28.2496708081      -22.7068410020       15.8057227321  MEMB      43              0.0000000000
      6343        71  DOPC      H3S            29.0716012020      -21.1911408645       15.2905147064  MEMB      43              0.0000000000
      6344        71  DOPC      C24            27.0788494259      -21.4199059977       14.5129845883  MEMB      43              0.0000000000
      6345        71  DOPC      H4R            27.1994354477      -20.4372396609       14.0126310693  MEMB      43              0.0000000000
      6346        71  DOPC      H4S            26.0591008173      -21.4318948754       14.9677017438  MEMB      43              0.0000000000
      6347        71  DOPC      C25            27.0767897860      -22.5719249695       13.4896628976  MEMB      43              0.0000000000
      6348        71  DOPC      H5R            26.0017655365      -22.8537414358       13.3905673399  MEMB      43              0.0000000000
      6349        71  DOPC      H5S            27.6026604660      -23.4696824434       13.8816532031  MEMB      43              0.0000000000
      6350        71  DOPC      C26            27.5494910115      -22.2686390645       12.0632423221  MEMB      43              0.0000000000
      6351        71  DOPC      H6R            28.6467378079      -22.4445926986       11.9886196745  MEMB      43              0.0000000000
      6352        71  DOPC      H6S            27.3721529797      -21.1938522552       11.8481509725  MEMB      43              0.0000000000
      6353        71  DOPC      C27            26.7991326243      -23.1514412377       11.0298529700  MEMB      43              0.0000000000
      6354        71  DOPC      H7R            25.9504110910      -23.6724907742       11.5286741944  MEMB      43              0.0000000000
      6355        71  DOPC      H7S            27.4887441032      -23.9551616527       10.6941279127  MEMB      43              0.0000000000
      6356        71  DOPC      C28            26.2428887059      -22.4387162329        9.7694680811  MEMB      43              0.0000000000
      6357        71  DOPC      H8R            25.7490265556      -23.2046990875        9.1364544539  MEMB      43              0.0000000000
      6358        71  DOPC      H8S            27.1167650349      -22.0872328819        9.1811982759  MEMB      43              0.0000000000
      6359        71  DOPC      C29            25.2825052608      -21.3010655419       10.0378966890  MEMB      43              0.0000000000
      6360        71  DOPC      H9R            25.3989405091      -20.8305589287       11.0273977097  MEMB      43              0.0000000000
      6361        71  DOPC      C210           24.3437736283      -20.8067498558        9.2022523559  MEMB      43              0.0000000000
      6362        71  DOPC      H10R           23.7367991822      -19.9623370637        9.5585831131  MEMB      43              0.0000000000
      6363        71  DOPC      C211           24.0126230241      -21.2614478154        7.7957001855  MEMB      43              0.0000000000
      6364        71  DOPC      H11R           22.9385783230      -21.0585735621        7.5782657716  MEMB      43              0.0000000000
      6365        71  DOPC      H11S           24.1404677919      -22.3612817594        7.7063297634  MEMB      43              0.0000000000
      6366        71  DOPC      C212           24.8405889651      -20.5818703624        6.6794410809  MEMB      43              0.0000000000
      6367        71  DOPC      H12R           25.8049530977      -20.2260809897        7.1011126890  MEMB      43              0.0000000000
      6368        71  DOPC      H12S           24.2973398417      -19.6905929667        6.2953685931  MEMB      43              0.0000000000
      6369        71  DOPC      C213           25.2149252991      -21.5252792768        5.5159582721  MEMB      43              0.0000000000
      6370        71  DOPC      H13R           24.3146107433      -22.0644138130        5.1528847915  MEMB      43              0.0000000000
      6371        71  DOPC      H13S           25.9144512173      -22.2569736723        5.9736821030  MEMB      43              0.0000000000
      6372        71  DOPC      C214           25.9131114524      -20.7826764862        4.3549850536  MEMB      43              0.0000000000
      6373        71  DOPC      H14R           26.8154166829      -20.3275925029        4.7988151618  MEMB      43              0.0000000000
      6374        71  DOPC      H14S           25.2297371661      -19.9921425682        3.9714891564  MEMB      43              0.0000000000
      6375        71  DOPC      C215           26.5089255968      -21.5323767915        3.1530399381  MEMB      43              0.0000000000
      6376        71  DOPC      H15R           27.5892701898      -21.7423813417        3.3433492253  MEMB      43              0.0000000000
      6377        71  DOPC      H15S           26.4639313567      -20.8578691266        2.2658223978  MEMB      43              0.0000000000
      6378        71  DOPC      C216           25.8332083814      -22.8429320791        2.8254053410  MEMB      43              0.0000000000
      6379        71  DOPC      H16R           25.9784178741      -23.1091657369        1.7569534262  MEMB      43              0.0000000000
      6380        71  DOPC      H16S           24.7395565384      -22.7596321768        2.9970124254  MEMB      43              0.0000000000
      6381        71  DOPC      C217           26.4370776491      -23.9492541445        3.6691832591  MEMB      43              0.0000000000
      6382        71  DOPC      H17R           26.4160885620      -23.6769637665        4.7401107591  MEMB      43              0.0000000000
      6383        71  DOPC      H17S           27.5065669678      -24.0906163327        3.4339694255  MEMB      43              0.0000000000
      6384        71  DOPC      C218           25.6494260160      -25.2214095521        3.5122126443  MEMB      43              0.0000000000
      6385        71  DOPC      H18R           24.5865064317      -24.9602167482        3.3936074495  MEMB      43              0.0000000000
      6386        71  DOPC      H18S           25.7859294005      -25.8186896062        4.4341447207  MEMB      43              0.0000000000
      6387        71  DOPC      H18T           25.9329780083      -25.8282215948        2.6300915954  MEMB      43              0.0000000000
      6388        71  DOPC      C33            22.6471782543      -22.3804782014       15.1499495364  MEMB      43              0.0000000000
      6389        71  DOPC      H3X            22.2488049438      -23.3975896334       14.9278601114  MEMB      43              0.0000000000
      6390        71  DOPC      H3Y            23.7136235018      -22.4031994939       14.8083645565  MEMB      43              0.0000000000
      6391        71  DOPC      C34            21.9828925435      -21.3412319717       14.2690028551  MEMB      43              0.0000000000
      6392        71  DOPC      H4X            22.1736772480      -20.3127251585       14.6437089605  MEMB      43              0.0000000000
      6393        71  DOPC      H4Y            20.8830397309      -21.5108560646       14.2813647005  MEMB      43              0.0000000000
      6394        71  DOPC      C35            22.5813281168      -21.4898086608       12.8763560991  MEMB      43              0.0000000000
      6395        71  DOPC      H5X            22.8377807147      -22.5664788988       12.7215890955  MEMB      43              0.0000000000
      6396        71  DOPC      H5Y            23.5271931227      -20.9088066101       12.7921253726  MEMB      43              0.0000000000
      6397        71  DOPC      C36            21.6197688155      -21.1030432789       11.7746848664  MEMB      43              0.0000000000
      6398        71  DOPC      H6X            21.9991930981      -21.5715157459       10.8370564472  MEMB      43              0.0000000000
      6399        71  DOPC      H6Y            20.6066950844      -21.5109959522       12.0039056415  MEMB      43              0.0000000000
      6400        71  DOPC      C37            21.5318108741      -19.6025327022       11.5399079280  MEMB      43              0.0000000000
      6401        71  DOPC      H7X            21.1437566382      -19.1170295549       12.4625942787  MEMB      43              0.0000000000
      6402        71  DOPC      H7Y            22.5532994762      -19.2081162788       11.3422858220  MEMB      43              0.0000000000
      6403        71  DOPC      C38            20.6177675176      -19.3168252326       10.3433143710  MEMB      43              0.0000000000
      6404        71  DOPC      H8X            19.6703840427      -19.8747955070       10.4991375344  MEMB      43              0.0000000000
      6405        71  DOPC      H8Y            21.0869117279      -19.7244375485        9.4177217095  MEMB      43              0.0000000000
      6406        71  DOPC      C39            20.3144170483      -17.8535616991       10.2228322701  MEMB      43              0.0000000000
      6407        71  DOPC      H9X            19.3374392706      -17.5484345488       10.6289626360  MEMB      43              0.0000000000
      6408        71  DOPC      C310           21.1233196349      -16.9213225778        9.6950270083  MEMB      43              0.0000000000
      6409        71  DOPC      H10X           20.7865305088      -15.8753251687        9.7068394312  MEMB      43              0.0000000000
      6410        71  DOPC      C311           22.4972078038      -17.1304840034        9.1120912529  MEMB      43              0.0000000000
      6411        71  DOPC      H11X           22.8261566641      -18.1868361735        9.1949954416  MEMB      43              0.0000000000
      6412        71  DOPC      H11Y           23.2321846686      -16.5193695665        9.6815899136  MEMB      43              0.0000000000
      6413        71  DOPC      C312           22.5779251578      -16.7333660337        7.6263357059  MEMB      43              0.0000000000
      6414        71  DOPC      H12X           23.6559031390      -16.7137329393        7.3470588679  MEMB      43              0.0000000000
      6415        71  DOPC      H12Y           22.1662350055      -15.7102849129        7.4744600630  MEMB      43              0.0000000000
      6416        71  DOPC      C313           21.8631311134      -17.7361922086        6.7095328722  MEMB      43              0.0000000000
      6417        71  DOPC      H13X           22.1349355989      -18.7647589816        7.0401864802  MEMB      43              0.0000000000
      6418        71  DOPC      H13Y           20.7613067168      -17.6319013321        6.8351497716  MEMB      43              0.0000000000
      6419        71  DOPC      C314           22.2219033287      -17.6209100743        5.2167656606  MEMB      43              0.0000000000
      6420        71  DOPC      H14X           21.9087220864      -16.6236260797        4.8347394360  MEMB      43              0.0000000000
      6421        71  DOPC      H14Y           23.3213758203      -17.7118737836        5.0810356108  MEMB      43              0.0000000000
      6422        71  DOPC      C315           21.5051785549      -18.7207929101        4.4202983453  MEMB      43              0.0000000000
      6423        71  DOPC      H15X           20.4156746835      -18.5136941564        4.5304642212  MEMB      43              0.0000000000
      6424        71  DOPC      H15Y           21.7221400841      -19.7098019614        4.8835805951  MEMB      43              0.0000000000
      6425        71  DOPC      C316           21.8269433962      -18.7969363307        2.9250902917  MEMB      43              0.0000000000
      6426        71  DOPC      H16X           21.8058239239      -17.7640883962        2.5093037257  MEMB      43              0.0000000000
      6427        71  DOPC      H16Y           22.8469727241      -19.2078211296        2.7656894194  MEMB      43              0.0000000000
      6428        71  DOPC      C317           20.7983538602      -19.6278268395        2.1376692309  MEMB      43              0.0000000000
      6429        71  DOPC      H17X           19.7977386293      -19.1846075488        2.3230693495  MEMB      43              0.0000000000
      6430        71  DOPC      H17Y           21.0041147942      -19.5017848385        1.0532110884  MEMB      43              0.0000000000
      6431        71  DOPC      C318           20.7104584178      -21.1261098372        2.4337533368  MEMB      43              0.0000000000
      6432        71  DOPC      H18X           21.6343187429      -21.5245651976        2.8982829485  MEMB      43              0.0000000000
      6433        71  DOPC      H18Y           19.8723877436      -21.3621148023        3.1097124894  MEMB      43              0.0000000000
      6434        71  DOPC      H18Z           20.5014630021      -21.6612217419        1.4838670331  MEMB      43              0.0000000000
      6435        72  DOPC      N             -18.8270257825       27.0484266365       18.7774756435  MEMB      44              0.0000000000
      6436        72  DOPC      C12           -18.7867141971       28.4715093612       18.2646330812  MEMB      44              0.0000000000
      6437        72  DOPC      H12A          -19.1071239198       29.1556998184       19.0452185953  MEMB      44              0.0000000000
      6438        72  DOPC      H12B          -19.4967590241       28.5839782460       17.4502513381  MEMB      44              0.0000000000
      6439        72  DOPC      C13           -18.0138446217       26.9938218070       20.0357572239  MEMB      44              0.0000000000
      6440        72  DOPC      H13A          -17.8926559952       26.0009461003       20.4339985327  MEMB      44              0.0000000000
      6441        72  DOPC      H13B          -17.0255502282       27.4072376342       19.8206340260  MEMB      44              0.0000000000
      6442        72  DOPC      H13C          -18.4035153905       27.6517077360       20.8081631977  MEMB      44              0.0000000000
      6443        72  DOPC      C14           -18.2244743243       26.1023654940       17.7709032510  MEMB      44              0.0000000000
      6444        72  DOPC      H14A          -18.2092032748       25.0909042571       18.1603480371  MEMB      44              0.0000000000
      6445        72  DOPC      H14B          -18.7831582965       26.1094449826       16.8393589945  MEMB      44              0.0000000000
      6446        72  DOPC      H14C          -17.2013360079       26.4175977388       17.5761240260  MEMB      44              0.0000000000
      6447        72  DOPC      C15           -20.2391134755       26.6180002083       19.0369407684  MEMB      44              0.0000000000
      6448        72  DOPC      H15A          -20.2347854449       25.6872649892       19.5886944539  MEMB      44              0.0000000000
      6449        72  DOPC      H15B          -20.7930184953       26.4663179614       18.1085438589  MEMB      44              0.0000000000
      6450        72  DOPC      H15C          -20.7944081274       27.3383068090       19.6203723660  MEMB      44              0.0000000000
      6451        72  DOPC      C11           -17.4213584450       28.9741680698       17.7489918527  MEMB      44              0.0000000000
      6452        72  DOPC      H11A          -17.1757563062       28.4072513761       16.8326346402  MEMB      44              0.0000000000
      6453        72  DOPC      H11B          -17.6088346973       30.0113266720       17.3962287185  MEMB      44              0.0000000000
      6454        72  DOPC      P             -16.0632959872       30.0612587616       19.7161620454  MEMB      44              0.0000000000
      6455        72  DOPC      O13           -14.6143129409       30.3862664550       19.7139798395  MEMB      44              0.0000000000
      6456        72  DOPC      O14           -16.6675556744       29.6506212141       20.9892335623  MEMB      44              0.0000000000
      6457        72  DOPC      O12           -16.3236213067       28.8838806078       18.6795142307  MEMB      44              0.0000000000
      6458        72  DOPC      O11           -16.9031027878       31.2086475531       19.0685844391  MEMB      44              0.0000000000
      6459        72  DOPC      C1            -16.8593565068       32.5654920303       19.4395268173  MEMB      44              0.0000000000
      6460        72  DOPC      HA            -16.2210731434       32.7129723252       20.3341334437  MEMB      44              0.0000000000
      6461        72  DOPC      HB            -17.8904565842       32.8466378083       19.7414254279  MEMB      44              0.0000000000
      6462        72  DOPC      C2            -16.4239874292       33.5131118721       18.2693159377  MEMB      44              0.0000000000
      6463        72  DOPC      HS            -16.5598298265       34.5547452903       18.6396353776  MEMB      44              0.0000000000
      6464        72  DOPC      O21           -17.1819057028       33.3533285449       17.0715181435  MEMB      44              0.0000000000
      6465        72  DOPC      C21           -18.4456944506       33.5690010400       16.9569556948  MEMB      44              0.0000000000
      6466        72  DOPC      O22           -19.2992167729       33.5530597807       17.8355328328  MEMB      44              0.0000000000
      6467        72  DOPC      C22           -18.7205037972       33.8464739462       15.4560154308  MEMB      44              0.0000000000
      6468        72  DOPC      H2R           -18.0025884446       34.6443521170       15.1582739297  MEMB      44              0.0000000000
      6469        72  DOPC      H2S           -19.7389837028       34.2625293611       15.3660390591  MEMB      44              0.0000000000
      6470        72  DOPC      C3            -14.9258541791       33.4135203491       17.8154898200  MEMB      44              0.0000000000
      6471        72  DOPC      HX            -14.2595661330       33.4242504433       18.7002375301  MEMB      44              0.0000000000
      6472        72  DOPC      HY            -14.6910580891       34.3083639061       17.1912698679  MEMB      44              0.0000000000
      6473        72  DOPC      O31           -14.6579630827       32.2087166780       17.0889642928  MEMB      44              0.0000000000
      6474        72  DOPC      C31           -15.1437694374       32.1705328186       15.8525478034  MEMB      44              0.0000000000
      6475        72  DOPC      O32           -15.1903132952       33.1010596851       15.0701505010  MEMB      44              0.0000000000
      6476        72  DOPC      C32           -15.7848603136       30.7909047018       15.6874401848  MEMB      44              0.0000000000
      6477        72  DOPC      H2X           -15.4540632534       30.2170331995       16.5784655138  MEMB      44              0.0000000000
      6478        72  DOPC      H2Y           -16.8756454147       30.9055320426       15.7874824660  MEMB      44              0.0000000000
      6479        72  DOPC      C23           -18.5169787128       32.6536423794       14.4791762178  MEMB      44              0.0000000000
      6480        72  DOPC      H3R           -17.4721640893       32.3102799576       14.5259707089  MEMB      44              0.0000000000
      6481        72  DOPC      H3S           -18.6270354810       33.0201925633       13.4330025184  MEMB      44              0.0000000000
      6482        72  DOPC      C24           -19.4945825064       31.4908097636       14.7198346763  MEMB      44              0.0000000000
      6483        72  DOPC      H4R           -20.4986084880       31.8336270398       14.3884329182  MEMB      44              0.0000000000
      6484        72  DOPC      H4S           -19.5477279719       31.2877362467       15.8117638057  MEMB      44              0.0000000000
      6485        72  DOPC      C25           -19.1586883438       30.1712198502       13.9992300767  MEMB      44              0.0000000000
      6486        72  DOPC      H5R           -20.0293505517       29.4831654707       14.0980646438  MEMB      44              0.0000000000
      6487        72  DOPC      H5S           -18.3027908941       29.6711098612       14.5037856457  MEMB      44              0.0000000000
      6488        72  DOPC      C26           -18.8125761586       30.3492670556       12.5157494703  MEMB      44              0.0000000000
      6489        72  DOPC      H6R           -17.7546314728       30.6747791562       12.4081139778  MEMB      44              0.0000000000
      6490        72  DOPC      H6S           -19.4380016797       31.1590236283       12.0813550414  MEMB      44              0.0000000000
      6491        72  DOPC      C27           -19.0265766282       29.0751092860       11.6885918395  MEMB      44              0.0000000000
      6492        72  DOPC      H7R           -20.1133009797       28.8494572623       11.6228176309  MEMB      44              0.0000000000
      6493        72  DOPC      H7S           -18.5434030019       28.2146129851       12.2052025360  MEMB      44              0.0000000000
      6494        72  DOPC      C28           -18.4147168511       29.1830593379       10.2787545473  MEMB      44              0.0000000000
      6495        72  DOPC      H8R           -18.4940117447       28.1761697949        9.8149512120  MEMB      44              0.0000000000
      6496        72  DOPC      H8S           -17.3303561791       29.3973711105       10.3967048054  MEMB      44              0.0000000000
      6497        72  DOPC      C29           -19.0790141470       30.2085290618        9.3920169014  MEMB      44              0.0000000000
      6498        72  DOPC      H9R           -20.1265344131       29.9874065830        9.1392739460  MEMB      44              0.0000000000
      6499        72  DOPC      C210          -18.5188044539       31.3349913651        8.9095664906  MEMB      44              0.0000000000
      6500        72  DOPC      H10R          -19.1266186060       32.0092761853        8.2840344745  MEMB      44              0.0000000000
      6501        72  DOPC      C211          -17.1040684747       31.7922696056        9.1681705879  MEMB      44              0.0000000000
      6502        72  DOPC      H11R          -16.3687092471       31.0291951470        8.8266836154  MEMB      44              0.0000000000
      6503        72  DOPC      H11S          -16.9519953476       31.9227213094       10.2643795112  MEMB      44              0.0000000000
      6504        72  DOPC      C212          -16.7729270582       33.1348609597        8.4891323324  MEMB      44              0.0000000000
      6505        72  DOPC      H12R          -15.8330432064       33.5412619965        8.9268685474  MEMB      44              0.0000000000
      6506        72  DOPC      H12S          -17.5763993580       33.8723701121        8.7244810660  MEMB      44              0.0000000000
      6507        72  DOPC      C213          -16.5961712281       33.0567179424        6.9603606724  MEMB      44              0.0000000000
      6508        72  DOPC      H13R          -16.5686963725       34.1079350264        6.6011409090  MEMB      44              0.0000000000
      6509        72  DOPC      H13S          -17.4802376147       32.5750727599        6.4907735942  MEMB      44              0.0000000000
      6510        72  DOPC      C214          -15.3023504687       32.3545179181        6.4846785654  MEMB      44              0.0000000000
      6511        72  DOPC      H14R          -15.3781426482       31.2647900895        6.6893894750  MEMB      44              0.0000000000
      6512        72  DOPC      H14S          -14.4501545310       32.7661034148        7.0716125688  MEMB      44              0.0000000000
      6513        72  DOPC      C215          -15.0378315838       32.5957045322        4.9858068730  MEMB      44              0.0000000000
      6514        72  DOPC      H15R          -14.9139237945       33.6876676642        4.8634811738  MEMB      44              0.0000000000
      6515        72  DOPC      H15S          -15.9332770058       32.2875596487        4.4032576080  MEMB      44              0.0000000000
      6516        72  DOPC      C216          -13.7782336414       31.9793460959        4.3440231400  MEMB      44              0.0000000000
      6517        72  DOPC      H16R          -13.7474658102       32.3712405360        3.2981214172  MEMB      44              0.0000000000
      6518        72  DOPC      H16S          -13.8509827762       30.8772611330        4.2480440174  MEMB      44              0.0000000000
      6519        72  DOPC      C217          -12.4543421570       32.3875898879        5.0082879582  MEMB      44              0.0000000000
      6520        72  DOPC      H17R          -12.0670247833       31.5392876667        5.6163940630  MEMB      44              0.0000000000
      6521        72  DOPC      H17S          -12.6422256240       33.2350796796        5.7059595534  MEMB      44              0.0000000000
      6522        72  DOPC      C218          -11.3982039974       32.8299035711        3.9884274484  MEMB      44              0.0000000000
      6523        72  DOPC      H18R          -11.7671485081       33.7082465126        3.4143592476  MEMB      44              0.0000000000
      6524        72  DOPC      H18S          -11.1841925548       32.0046858046        3.2738637922  MEMB      44              0.0000000000
      6525        72  DOPC      H18T          -10.4510866696       33.1109448033        4.4970459911  MEMB      44              0.0000000000
      6526        72  DOPC      C33           -15.4728324563       29.9485962611       14.4365841257  MEMB      44              0.0000000000
      6527        72  DOPC      H3X           -14.4740106272       30.2046918096       14.0216642841  MEMB      44              0.0000000000
      6528        72  DOPC      H3Y           -16.1921426784       30.1395346456       13.6182002606  MEMB      44              0.0000000000
      6529        72  DOPC      C34           -15.5068212320       28.4711051535       14.8650465787  MEMB      44              0.0000000000
      6530        72  DOPC      H4X           -16.5239598496       28.0549451949       14.6930832610  MEMB      44              0.0000000000
      6531        72  DOPC      H4Y           -15.3251984856       28.3914588189       15.9585599031  MEMB      44              0.0000000000
      6532        72  DOPC      C35           -14.4211328587       27.6063444243       14.2390080484  MEMB      44              0.0000000000
      6533        72  DOPC      H5X           -13.9244253429       27.0082918240       15.0389368094  MEMB      44              0.0000000000
      6534        72  DOPC      H5Y           -13.6413194680       28.2453280790       13.7725556536  MEMB      44              0.0000000000
      6535        72  DOPC      C36           -15.0273387095       26.6857624460       13.1975386715  MEMB      44              0.0000000000
      6536        72  DOPC      H6X           -14.2473472185       26.0269067865       12.7741934617  MEMB      44              0.0000000000
      6537        72  DOPC      H6Y           -15.7881263550       26.0415066342       13.6949222047  MEMB      44              0.0000000000
      6538        72  DOPC      C37           -15.7023719472       27.4562793246       12.0568109152  MEMB      44              0.0000000000
      6539        72  DOPC      H7X           -16.3329528725       26.7159047750       11.5254815880  MEMB      44              0.0000000000
      6540        72  DOPC      H7Y           -16.3967479222       28.2253903658       12.4500280276  MEMB      44              0.0000000000
      6541        72  DOPC      C38           -14.7217396418       28.1650271650       11.0956448618  MEMB      44              0.0000000000
      6542        72  DOPC      H8X           -14.0794636976       28.8679348900       11.6704253362  MEMB      44              0.0000000000
      6543        72  DOPC      H8Y           -15.3037407388       28.8020860106       10.3926942238  MEMB      44              0.0000000000
      6544        72  DOPC      C39           -13.8887333984       27.1934652461       10.3051144394  MEMB      44              0.0000000000
      6545        72  DOPC      H9X           -12.8046465564       27.2225847362       10.5024397925  MEMB      44              0.0000000000
      6546        72  DOPC      C310          -14.3807965378       26.3601782351        9.3683830020  MEMB      44              0.0000000000
      6547        72  DOPC      H10X          -13.6834774716       25.7087621745        8.8195727322  MEMB      44              0.0000000000
      6548        72  DOPC      C311          -15.8335821458       26.2626623960        8.9566027980  MEMB      44              0.0000000000
      6549        72  DOPC      H11X          -16.4772600753       26.9230013312        9.5741746012  MEMB      44              0.0000000000
      6550        72  DOPC      H11Y          -16.1975268849       25.2278690509        9.1256891009  MEMB      44              0.0000000000
      6551        72  DOPC      C312          -16.1480937356       26.6943555228        7.5118803875  MEMB      44              0.0000000000
      6552        72  DOPC      H12X          -15.8467746078       25.8837032962        6.8141081390  MEMB      44              0.0000000000
      6553        72  DOPC      H12Y          -15.5748796780       27.6132387460        7.2553593295  MEMB      44              0.0000000000
      6554        72  DOPC      C313          -17.6356170124       27.0417169625        7.3263856990  MEMB      44              0.0000000000
      6555        72  DOPC      H13X          -18.2527776948       26.2609910756        7.8213419956  MEMB      44              0.0000000000
      6556        72  DOPC      H13Y          -17.8488824924       28.0079507108        7.8314306694  MEMB      44              0.0000000000
      6557        72  DOPC      C314          -18.0499999219       27.1668065632        5.8570266747  MEMB      44              0.0000000000
      6558        72  DOPC      H14X          -17.6300425886       26.2974796159        5.3087553210  MEMB      44              0.0000000000
      6559        72  DOPC      H14Y          -19.1582791419       27.1053121401        5.7771958832  MEMB      44              0.0000000000
      6560        72  DOPC      C315          -17.5988095142       28.4907420791        5.2196319485  MEMB      44              0.0000000000
      6561        72  DOPC      H15X          -16.5113719273       28.6427252632        5.4028004424  MEMB      44              0.0000000000
      6562        72  DOPC      H15Y          -18.1309467312       29.3290061791        5.7250099851  MEMB      44              0.0000000000
      6563        72  DOPC      C316          -17.8740377315       28.5548518553        3.7073566857  MEMB      44              0.0000000000
      6564        72  DOPC      H16X          -18.9476163052       28.3427807214        3.5119285413  MEMB      44              0.0000000000
      6565        72  DOPC      H16Y          -17.6564640539       29.5881197312        3.3488431819  MEMB      44              0.0000000000
      6566        72  DOPC      C317          -17.0101283914       27.5674706401        2.9128061636  MEMB      44              0.0000000000
      6567        72  DOPC      H17X          -15.9653823123       27.8466965487        3.1016133933  MEMB      44              0.0000000000
      6568        72  DOPC      H17Y          -17.1196415951       26.5389944869        3.3132365807  MEMB      44              0.0000000000
      6569        72  DOPC      C318          -17.2671180477       27.5377406872        1.4053987447  MEMB      44              0.0000000000
      6570        72  DOPC      H18X          -18.3468599274       27.3583345150        1.2102091208  MEMB      44              0.0000000000
      6571        72  DOPC      H18Y          -16.9693885363       28.4934706132        0.9235358292  MEMB      44              0.0000000000
      6572        72  DOPC      H18Z          -16.6840735380       26.7233011423        0.9233608471  MEMB      44              0.0000000000
      6573        73  DOPC      N             -30.3591285527      -12.6581041191       18.0093542085  MEMB      45              0.0000000000
      6574        73  DOPC      C12           -29.7795935157      -11.2863932024       18.3517428419  MEMB      45              0.0000000000
      6575        73  DOPC      H12A          -30.3665649732      -10.4811789414       17.9148225908  MEMB      45              0.0000000000
      6576        73  DOPC      H12B          -28.7835823375      -11.1995296620       17.9054424220  MEMB      45              0.0000000000
      6577        73  DOPC      C13           -31.7010402010      -12.7842417432       18.6923523107  MEMB      45              0.0000000000
      6578        73  DOPC      H13A          -32.1832360306      -13.7434880023       18.5411383314  MEMB      45              0.0000000000
      6579        73  DOPC      H13B          -31.5782448399      -12.5914963136       19.7607355533  MEMB      45              0.0000000000
      6580        73  DOPC      H13C          -32.4041855462      -12.0256903148       18.3545174211  MEMB      45              0.0000000000
      6581        73  DOPC      C14           -29.4222362273      -13.6921900141       18.5370938431  MEMB      45              0.0000000000
      6582        73  DOPC      H14A          -28.4391014751      -13.6176644118       18.0834046490  MEMB      45              0.0000000000
      6583        73  DOPC      H14B          -29.2646498966      -13.4740350778       19.5978812301  MEMB      45              0.0000000000
      6584        73  DOPC      H14C          -29.8363749735      -14.6790522322       18.4551189629  MEMB      45              0.0000000000
      6585        73  DOPC      C15           -30.5027266037      -12.8454488034       16.5305276033  MEMB      45              0.0000000000
      6586        73  DOPC      H15A          -29.5595785197      -12.6671516332       16.0250476924  MEMB      45              0.0000000000
      6587        73  DOPC      H15B          -31.2554960176      -12.1717734193       16.1338059192  MEMB      45              0.0000000000
      6588        73  DOPC      H15C          -30.8222619072      -13.8558125493       16.3059262937  MEMB      45              0.0000000000
      6589        73  DOPC      C11           -29.6124377842      -10.9590389878       19.8618529482  MEMB      45              0.0000000000
      6590        73  DOPC      H11A          -29.3036503795       -9.8905864795       19.9768027657  MEMB      45              0.0000000000
      6591        73  DOPC      H11B          -30.5928568590      -11.0269180382       20.3668965083  MEMB      45              0.0000000000
      6592        73  DOPC      P             -27.1616693383      -11.5602203089       20.4755265248  MEMB      45              0.0000000000
      6593        73  DOPC      O13           -26.4771477038      -12.8269641886       20.8226613731  MEMB      45              0.0000000000
      6594        73  DOPC      O14           -26.8663596643      -10.3548409566       21.2780777015  MEMB      45              0.0000000000
      6595        73  DOPC      O12           -28.7104846682      -11.8556276373       20.5090923040  MEMB      45              0.0000000000
      6596        73  DOPC      O11           -26.9639850076      -11.2521724373       18.9326160120  MEMB      45              0.0000000000
      6597        73  DOPC      C1            -26.7677189184       -9.8916823287       18.5353091617  MEMB      45              0.0000000000
      6598        73  DOPC      HA            -25.7614703722       -9.5541258839       18.8727109438  MEMB      45              0.0000000000
      6599        73  DOPC      HB            -27.5262093820       -9.1971394651       18.9741596391  MEMB      45              0.0000000000
      6600        73  DOPC      C2            -26.8335346232       -9.7230578097       16.9926813407  MEMB      45              0.0000000000
      6601        73  DOPC      HS            -26.4596504459       -8.6864780327       16.8059898669  MEMB      45              0.0000000000
      6602        73  DOPC      O21           -28.2000452873       -9.8709679674       16.5179908044  MEMB      45              0.0000000000
      6603        73  DOPC      C21           -28.3511653297       -9.4162179746       15.2750185365  MEMB      45              0.0000000000
      6604        73  DOPC      O22           -27.4966173905       -8.8093677641       14.6555168808  MEMB      45              0.0000000000
      6605        73  DOPC      C22           -29.6901890846       -9.8426046162       14.6663219627  MEMB      45              0.0000000000
      6606        73  DOPC      H2R           -30.1158439643       -8.8974642099       14.2728299641  MEMB      45              0.0000000000
      6607        73  DOPC      H2S           -30.3694545286      -10.2198465945       15.4524183379  MEMB      45              0.0000000000
      6608        73  DOPC      C3            -25.8934188427      -10.7465282025       16.2718946348  MEMB      45              0.0000000000
      6609        73  DOPC      HX            -24.9262208692      -10.7520096364       16.8257323649  MEMB      45              0.0000000000
      6610        73  DOPC      HY            -25.7013472432      -10.3673596038       15.2416788903  MEMB      45              0.0000000000
      6611        73  DOPC      O31           -26.4807916246      -12.0726003784       16.2144065144  MEMB      45              0.0000000000
      6612        73  DOPC      C31           -25.7209732738      -12.9643538309       15.5823168119  MEMB      45              0.0000000000
      6613        73  DOPC      O32           -24.6009858253      -12.7635059471       15.1591849627  MEMB      45              0.0000000000
      6614        73  DOPC      C32           -26.4659127768      -14.2785327938       15.4130351048  MEMB      45              0.0000000000
      6615        73  DOPC      H2X           -25.6993437559      -15.0467504405       15.1769800983  MEMB      45              0.0000000000
      6616        73  DOPC      H2Y           -26.9480490113      -14.5274514940       16.3789734513  MEMB      45              0.0000000000
      6617        73  DOPC      C23           -29.5497350605      -10.7767042606       13.4417869631  MEMB      45              0.0000000000
      6618        73  DOPC      H3R           -29.4540277116      -11.8379898069       13.7526952624  MEMB      45              0.0000000000
      6619        73  DOPC      H3S           -28.6091077203      -10.5141267952       12.9020849576  MEMB      45              0.0000000000
      6620        73  DOPC      C24           -30.6954320121      -10.6087035335       12.4260140129  MEMB      45              0.0000000000
      6621        73  DOPC      H4R           -31.0599629828       -9.5553584306       12.4329669319  MEMB      45              0.0000000000
      6622        73  DOPC      H4S           -31.5482285715      -11.2540214403       12.7307615695  MEMB      45              0.0000000000
      6623        73  DOPC      C25           -30.2739078925      -10.9352053859       10.9808551887  MEMB      45              0.0000000000
      6624        73  DOPC      H5R           -29.3672523787      -11.5724928400       10.9760551415  MEMB      45              0.0000000000
      6625        73  DOPC      H5S           -29.9979088086       -9.9948189011       10.4532749458  MEMB      45              0.0000000000
      6626        73  DOPC      C26           -31.3501043394      -11.6768163400       10.1792474499  MEMB      45              0.0000000000
      6627        73  DOPC      H6R           -32.2800410223      -11.0704041845       10.1577172126  MEMB      45              0.0000000000
      6628        73  DOPC      H6S           -31.5955344403      -12.6371494901       10.6843948987  MEMB      45              0.0000000000
      6629        73  DOPC      C27           -30.8996939450      -11.9589386568        8.7371772230  MEMB      45              0.0000000000
      6630        73  DOPC      H7R           -29.9346611306      -12.4978305441        8.7647460600  MEMB      45              0.0000000000
      6631        73  DOPC      H7S           -30.7276991763      -10.9913172551        8.2205312739  MEMB      45              0.0000000000
      6632        73  DOPC      C28           -31.9334807993      -12.7992092710        7.9708256169  MEMB      45              0.0000000000
      6633        73  DOPC      H8R           -32.9257910612      -12.3395151694        8.1874515542  MEMB      45              0.0000000000
      6634        73  DOPC      H8S           -31.9581801392      -13.8063497871        8.4484936735  MEMB      45              0.0000000000
      6635        73  DOPC      C29           -31.8273061697      -12.9691808953        6.4728325562  MEMB      45              0.0000000000
      6636        73  DOPC      H9R           -32.7723301923      -13.3432276327        6.0508186245  MEMB      45              0.0000000000
      6637        73  DOPC      C210          -30.8269011494      -12.7752124554        5.5843379034  MEMB      45              0.0000000000
      6638        73  DOPC      H10R          -31.0514293836      -13.0114142300        4.5340608714  MEMB      45              0.0000000000
      6639        73  DOPC      C211          -29.3999773839      -12.3031741130        5.7384518749  MEMB      45              0.0000000000
      6640        73  DOPC      H11R          -28.7450929939      -12.8236701416        5.0038264420  MEMB      45              0.0000000000
      6641        73  DOPC      H11S          -28.9813389372      -12.4876798856        6.7452812838  MEMB      45              0.0000000000
      6642        73  DOPC      C212          -29.3758262207      -10.7972127084        5.4668649475  MEMB      45              0.0000000000
      6643        73  DOPC      H12R          -29.6707927710      -10.2920697159        6.4152967877  MEMB      45              0.0000000000
      6644        73  DOPC      H12S          -30.1242327040      -10.5694943035        4.6705276750  MEMB      45              0.0000000000
      6645        73  DOPC      C213          -28.0782061978      -10.1654940124        4.9519633933  MEMB      45              0.0000000000
      6646        73  DOPC      H13R          -28.2513053889       -9.0697107981        4.8454582760  MEMB      45              0.0000000000
      6647        73  DOPC      H13S          -27.8979282912      -10.5532227696        3.9272860298  MEMB      45              0.0000000000
      6648        73  DOPC      C214          -26.8660598270      -10.3840477734        5.8587076555  MEMB      45              0.0000000000
      6649        73  DOPC      H14R          -27.0958826815      -11.1738372453        6.6084798040  MEMB      45              0.0000000000
      6650        73  DOPC      H14S          -26.6523617564       -9.4514536088        6.4233351316  MEMB      45              0.0000000000
      6651        73  DOPC      C215          -25.6179961861      -10.8338129092        5.0967421211  MEMB      45              0.0000000000
      6652        73  DOPC      H15R          -24.8388840410      -11.0350585326        5.8601153919  MEMB      45              0.0000000000
      6653        73  DOPC      H15S          -25.2698034054      -10.0584735225        4.3785408049  MEMB      45              0.0000000000
      6654        73  DOPC      C216          -25.8394437644      -12.1420444318        4.3581943343  MEMB      45              0.0000000000
      6655        73  DOPC      H16R          -26.4545932066      -11.9426541472        3.4563851569  MEMB      45              0.0000000000
      6656        73  DOPC      H16S          -26.4374405546      -12.7768738370        5.0489355786  MEMB      45              0.0000000000
      6657        73  DOPC      C217          -24.5627971310      -12.8818360438        3.9405589358  MEMB      45              0.0000000000
      6658        73  DOPC      H17R          -24.5040857926      -13.8320594176        4.5174450232  MEMB      45              0.0000000000
      6659        73  DOPC      H17S          -23.6617491287      -12.3079383552        4.2218200340  MEMB      45              0.0000000000
      6660        73  DOPC      C218          -24.5183713221      -13.1767240439        2.4386933401  MEMB      45              0.0000000000
      6661        73  DOPC      H18R          -24.1738651539      -14.2129346756        2.2477650291  MEMB      45              0.0000000000
      6662        73  DOPC      H18S          -23.8404709352      -12.4735135966        1.9142320698  MEMB      45              0.0000000000
      6663        73  DOPC      H18T          -25.5286151690      -13.0634434945        1.9933181992  MEMB      45              0.0000000000
      6664        73  DOPC      C33           -27.5035312307      -14.2029811361       14.2647332952  MEMB      45              0.0000000000
      6665        73  DOPC      H3X           -28.3630115575      -13.5826162325       14.6009728603  MEMB      45              0.0000000000
      6666        73  DOPC      H3Y           -27.8819966845      -15.2284455278       14.0541692325  MEMB      45              0.0000000000
      6667        73  DOPC      C34           -26.9505382160      -13.5981681734       12.9593972587  MEMB      45              0.0000000000
      6668        73  DOPC      H4X           -26.0137120000      -14.1199289913       12.6580595349  MEMB      45              0.0000000000
      6669        73  DOPC      H4Y           -26.6828148364      -12.5322468202       13.1465494206  MEMB      45              0.0000000000
      6670        73  DOPC      C35           -27.9371762754      -13.6144179536       11.7721136950  MEMB      45              0.0000000000
      6671        73  DOPC      H5X           -27.6162188935      -12.8183302876       11.0632691626  MEMB      45              0.0000000000
      6672        73  DOPC      H5Y           -28.9649605563      -13.3767395980       12.1219924133  MEMB      45              0.0000000000
      6673        73  DOPC      C36           -27.9342187099      -14.9398416806       11.0036448515  MEMB      45              0.0000000000
      6674        73  DOPC      H6X           -26.8793328037      -15.2428851670       10.8336473385  MEMB      45              0.0000000000
      6675        73  DOPC      H6Y           -28.4361741813      -15.6929306304       11.6540202601  MEMB      45              0.0000000000
      6676        73  DOPC      C37           -28.6428132481      -14.9684931627        9.6410124350  MEMB      45              0.0000000000
      6677        73  DOPC      H7X           -28.7372191480      -16.0313265817        9.3244597791  MEMB      45              0.0000000000
      6678        73  DOPC      H7Y           -29.6749613446      -14.5687227351        9.7697072830  MEMB      45              0.0000000000
      6679        73  DOPC      C38           -27.9626546659      -14.2029864700        8.4817286358  MEMB      45              0.0000000000
      6680        73  DOPC      H8X           -27.8755524677      -13.1346138465        8.7797201418  MEMB      45              0.0000000000
      6681        73  DOPC      H8Y           -28.6984361919      -14.2435803835        7.6493442425  MEMB      45              0.0000000000
      6682        73  DOPC      C39           -26.6274443952      -14.6585154483        7.9501105341  MEMB      45              0.0000000000
      6683        73  DOPC      H9X           -25.7681737531      -14.2086742788        8.4709465600  MEMB      45              0.0000000000
      6684        73  DOPC      C310          -26.3722128321      -15.5617419433        6.9799010570  MEMB      45              0.0000000000
      6685        73  DOPC      H10X          -25.3163943783      -15.7417790002        6.7250546915  MEMB      45              0.0000000000
      6686        73  DOPC      C311          -27.3182822730      -16.3948744193        6.1447156612  MEMB      45              0.0000000000
      6687        73  DOPC      H11X          -28.0044112700      -16.9612067492        6.8050650569  MEMB      45              0.0000000000
      6688        73  DOPC      H11Y          -26.7158965940      -17.1739438728        5.6433277330  MEMB      45              0.0000000000
      6689        73  DOPC      C312          -28.1036882141      -15.7752605451        4.9730479468  MEMB      45              0.0000000000
      6690        73  DOPC      H12X          -28.7632981944      -14.9672839244        5.3447129780  MEMB      45              0.0000000000
      6691        73  DOPC      H12Y          -28.7542511983      -16.5657935727        4.5370888105  MEMB      45              0.0000000000
      6692        73  DOPC      C313          -27.1766661871      -15.3082643099        3.8451209795  MEMB      45              0.0000000000
      6693        73  DOPC      H13X          -26.4647118806      -14.5940807440        4.2764031858  MEMB      45              0.0000000000
      6694        73  DOPC      H13Y          -26.5659890843      -16.1704750021        3.4986479600  MEMB      45              0.0000000000
      6695        73  DOPC      C314          -27.8831380515      -14.6832677409        2.6327017977  MEMB      45              0.0000000000
      6696        73  DOPC      H14X          -28.9827244492      -14.7537573764        2.7729773295  MEMB      45              0.0000000000
      6697        73  DOPC      H14Y          -27.6459883483      -13.6004004885        2.5601416463  MEMB      45              0.0000000000
      6698        73  DOPC      C315          -27.4790125819      -15.3900679272        1.3302986350  MEMB      45              0.0000000000
      6699        73  DOPC      H15X          -27.6536673829      -16.4789812375        1.4881304692  MEMB      45              0.0000000000
      6700        73  DOPC      H15Y          -26.3932736659      -15.2582285015        1.1409006186  MEMB      45              0.0000000000
      6701        73  DOPC      C316          -28.3008565406      -14.9551039817        0.1118513357  MEMB      45              0.0000000000
      6702        73  DOPC      H16X          -28.4621937982      -15.8365517516       -0.5485575227  MEMB      45              0.0000000000
      6703        73  DOPC      H16Y          -29.3118502427      -14.6308350057        0.4458018297  MEMB      45              0.0000000000
      6704        73  DOPC      C317          -27.6730752447      -13.8427045585       -0.7421636321  MEMB      45              0.0000000000
      6705        73  DOPC      H17X          -28.3997112986      -13.6877338898       -1.5725835733  MEMB      45              0.0000000000
      6706        73  DOPC      H17Y          -27.6228982542      -12.9035895640       -0.1489427749  MEMB      45              0.0000000000
      6707        73  DOPC      C318          -26.2831450664      -14.1110206246       -1.3399913807  MEMB      45              0.0000000000
      6708        73  DOPC      H18X          -26.1321013263      -15.1851951873       -1.5429316317  MEMB      45              0.0000000000
      6709        73  DOPC      H18Y          -26.1612616361      -13.5763419624       -2.3068691125  MEMB      45              0.0000000000
      6710        73  DOPC      H18Z          -25.4759199850      -13.7779706606       -0.6565316326  MEMB      45              0.0000000000
      6711        74  DOPC      N             -10.2604956960       31.2087193329       20.7664434251  MEMB      46              0.0000000000
      6712        74  DOPC      C12            -9.5700370851       32.5518398844       20.4906895855  MEMB      46              0.0000000000
      6713        74  DOPC      H12A           -8.5782352397       32.5383209774       20.9438863146  MEMB      46              0.0000000000
      6714        74  DOPC      H12B          -10.1485003437       33.3371244529       20.9456086618  MEMB      46              0.0000000000
      6715        74  DOPC      C13           -11.2357274896       30.8782594072       19.6857794165  MEMB      46              0.0000000000
      6716        74  DOPC      H13A          -10.7309810044       30.9142177194       18.7232176051  MEMB      46              0.0000000000
      6717        74  DOPC      H13B          -11.6121775867       29.8687886971       19.8044625181  MEMB      46              0.0000000000
      6718        74  DOPC      H13C          -12.1077289384       31.5226494320       19.6616930153  MEMB      46              0.0000000000
      6719        74  DOPC      C14           -11.0299550833       31.1981617006       22.0557606107  MEMB      46              0.0000000000
      6720        74  DOPC      H14A          -10.4268777463       31.5044145263       22.9001655861  MEMB      46              0.0000000000
      6721        74  DOPC      H14B          -11.9226907148       31.8031848861       21.9794698450  MEMB      46              0.0000000000
      6722        74  DOPC      H14C          -11.3707124554       30.1856141617       22.2728283524  MEMB      46              0.0000000000
      6723        74  DOPC      C15            -9.2324071667       30.1034361206       20.8248826882  MEMB      46              0.0000000000
      6724        74  DOPC      H15A           -9.6918307957       29.1207707580       20.7217786081  MEMB      46              0.0000000000
      6725        74  DOPC      H15B           -8.6604417373       30.1254452966       21.7487047673  MEMB      46              0.0000000000
      6726        74  DOPC      H15C           -8.5340294317       30.2075526494       20.0003445054  MEMB      46              0.0000000000
      6727        74  DOPC      C11            -9.3139005619       33.0211369594       19.0280745924  MEMB      46              0.0000000000
      6728        74  DOPC      H11A          -10.1053863652       32.6442020461       18.3446747291  MEMB      46              0.0000000000
      6729        74  DOPC      H11B           -9.4070683357       34.1271480360       18.9983852990  MEMB      46              0.0000000000
      6730        74  DOPC      P              -7.6889201852       32.4788090363       17.0410134796  MEMB      46              0.0000000000
      6731        74  DOPC      O13            -6.6972212838       33.4155902604       16.4754805654  MEMB      46              0.0000000000
      6732        74  DOPC      O14            -9.0003002465       32.4330055271       16.3487168030  MEMB      46              0.0000000000
      6733        74  DOPC      O12            -7.9873581557       32.6916112739       18.6108916391  MEMB      46              0.0000000000
      6734        74  DOPC      O11            -7.1102015709       31.0041683129       17.1156513911  MEMB      46              0.0000000000
      6735        74  DOPC      C1             -7.9323673627       29.9985391139       17.6898933991  MEMB      46              0.0000000000
      6736        74  DOPC      HA             -8.9717632610       30.3391165535       17.9151230074  MEMB      46              0.0000000000
      6737        74  DOPC      HB             -7.4633915678       29.6303492016       18.6276884212  MEMB      46              0.0000000000
      6738        74  DOPC      C2             -8.0504064643       28.8455682050       16.6984408534  MEMB      46              0.0000000000
      6739        74  DOPC      HS             -7.0123974482       28.4320770517       16.6103276774  MEMB      46              0.0000000000
      6740        74  DOPC      O21            -8.6000645902       29.3352274679       15.4502027652  MEMB      46              0.0000000000
      6741        74  DOPC      C21            -8.0097274876       28.8357851657       14.3842311374  MEMB      46              0.0000000000
      6742        74  DOPC      O22            -7.0779977709       28.0645901535       14.4033614443  MEMB      46              0.0000000000
      6743        74  DOPC      C22            -8.7925366010       29.1864655220       13.1209630826  MEMB      46              0.0000000000
      6744        74  DOPC      H2R            -8.5758054830       30.2454164895       12.8804989795  MEMB      46              0.0000000000
      6745        74  DOPC      H2S            -9.8583572726       29.0458617174       13.3926820108  MEMB      46              0.0000000000
      6746        74  DOPC      C3             -8.9806827664       27.7505026814       17.2522625633  MEMB      46              0.0000000000
      6747        74  DOPC      HX             -8.4800420810       27.2359491140       18.1029991281  MEMB      46              0.0000000000
      6748        74  DOPC      HY             -9.0752017833       27.0620800141       16.3848466043  MEMB      46              0.0000000000
      6749        74  DOPC      O31           -10.2478837750       28.2978137997       17.6759320275  MEMB      46              0.0000000000
      6750        74  DOPC      C31           -11.3196839328       27.7332448686       17.1418138647  MEMB      46              0.0000000000
      6751        74  DOPC      O32           -11.3561613239       26.6195755307       16.6410074653  MEMB      46              0.0000000000
      6752        74  DOPC      C32           -12.4641645491       28.7323970349       17.1798770612  MEMB      46              0.0000000000
      6753        74  DOPC      H2X           -13.4170184737       28.1661995638       17.1751324679  MEMB      46              0.0000000000
      6754        74  DOPC      H2Y           -12.4568599266       29.3502435801       18.0898104730  MEMB      46              0.0000000000
      6755        74  DOPC      C23            -8.5263691070       28.2968478334       11.8845231662  MEMB      46              0.0000000000
      6756        74  DOPC      H3R            -9.4755211865       27.7624076628       11.6402558194  MEMB      46              0.0000000000
      6757        74  DOPC      H3S            -7.7661188398       27.5162865349       12.0956444854  MEMB      46              0.0000000000
      6758        74  DOPC      C24            -8.0869773335       29.0617850035       10.6199334129  MEMB      46              0.0000000000
      6759        74  DOPC      H4R            -7.1692119103       29.6518429164       10.8246038438  MEMB      46              0.0000000000
      6760        74  DOPC      H4S            -8.8938905926       29.7640553056       10.3258393641  MEMB      46              0.0000000000
      6761        74  DOPC      C25            -7.8376688957       28.0448578725        9.4956631131  MEMB      46              0.0000000000
      6762        74  DOPC      H5R            -8.7435372419       27.3963228860        9.5231253959  MEMB      46              0.0000000000
      6763        74  DOPC      H5S            -6.9501403781       27.4347506175        9.7685857050  MEMB      46              0.0000000000
      6764        74  DOPC      C26            -7.6958123038       28.5229476223        8.0329100425  MEMB      46              0.0000000000
      6765        74  DOPC      H6R            -7.4408714555       27.6362564678        7.4047874186  MEMB      46              0.0000000000
      6766        74  DOPC      H6S            -6.8928184427       29.2713663974        7.9103953694  MEMB      46              0.0000000000
      6767        74  DOPC      C27            -9.0075167356       29.1033487090        7.5213002378  MEMB      46              0.0000000000
      6768        74  DOPC      H7R            -9.2094397131       30.0212281379        8.1245937645  MEMB      46              0.0000000000
      6769        74  DOPC      H7S            -9.7877480828       28.3506834093        7.7691065779  MEMB      46              0.0000000000
      6770        74  DOPC      C28            -9.1160264265       29.4923100283        6.0237441866  MEMB      46              0.0000000000
      6771        74  DOPC      H8R            -8.2118898623       30.0342725464        5.6952106790  MEMB      46              0.0000000000
      6772        74  DOPC      H8S            -9.9494807717       30.2341440789        5.9740278824  MEMB      46              0.0000000000
      6773        74  DOPC      C29            -9.5112166980       28.3972395335        5.0692502297  MEMB      46              0.0000000000
      6774        74  DOPC      H9R           -10.3825871435       27.8258745862        5.4365187803  MEMB      46              0.0000000000
      6775        74  DOPC      C210           -8.9190539062       27.9636721811        3.9350038109  MEMB      46              0.0000000000
      6776        74  DOPC      H10R           -9.4638686474       27.1590381586        3.4093503266  MEMB      46              0.0000000000
      6777        74  DOPC      C211           -7.6442444760       28.4057771867        3.2154806461  MEMB      46              0.0000000000
      6778        74  DOPC      H11R           -7.5888517722       27.9307109767        2.2024889259  MEMB      46              0.0000000000
      6779        74  DOPC      H11S           -6.8718982246       27.8886490810        3.8400480760  MEMB      46              0.0000000000
      6780        74  DOPC      C212           -7.0474247553       29.8504906035        3.0280821905  MEMB      46              0.0000000000
      6781        74  DOPC      H12R           -5.9896646451       29.8128279669        3.3660696419  MEMB      46              0.0000000000
      6782        74  DOPC      H12S           -7.5637162496       30.5646898878        3.7041088346  MEMB      46              0.0000000000
      6783        74  DOPC      C213           -6.9640371782       30.4981822674        1.6063732887  MEMB      46              0.0000000000
      6784        74  DOPC      H13R           -6.3512472612       31.4253747566        1.6960060532  MEMB      46              0.0000000000
      6785        74  DOPC      H13S           -7.9727374025       30.8451269071        1.3587531442  MEMB      46              0.0000000000
      6786        74  DOPC      C214           -6.3954429213       29.7212237804        0.3824406627  MEMB      46              0.0000000000
      6787        74  DOPC      H14R           -6.6477409727       28.6430457272        0.4439059899  MEMB      46              0.0000000000
      6788        74  DOPC      H14S           -5.2934844665       29.8211727542        0.4205850101  MEMB      46              0.0000000000
      6789        74  DOPC      C215           -6.9122560170       30.2826010875       -0.9776150367  MEMB      46              0.0000000000
      6790        74  DOPC      H15R           -6.6922123550       31.3702061448       -1.0262107773  MEMB      46              0.0000000000
      6791        74  DOPC      H15S           -8.0114339374       30.1810690383       -0.9845097119  MEMB      46              0.0000000000
      6792        74  DOPC      C216           -6.4583261843       29.6340792346       -2.3100176241  MEMB      46              0.0000000000
      6793        74  DOPC      H16R           -5.4016876499       29.8616767362       -2.5259693458  MEMB      46              0.0000000000
      6794        74  DOPC      H16S           -7.0231623041       30.0984232459       -3.1472071905  MEMB      46              0.0000000000
      6795        74  DOPC      C217           -6.6124860804       28.1157968725       -2.4194896723  MEMB      46              0.0000000000
      6796        74  DOPC      H17R           -5.8743875637       27.6851755706       -1.7161600843  MEMB      46              0.0000000000
      6797        74  DOPC      H17S           -6.3116988985       27.7963969994       -3.4434843338  MEMB      46              0.0000000000
      6798        74  DOPC      C218           -7.9922085185       27.5359332388       -2.1188812575  MEMB      46              0.0000000000
      6799        74  DOPC      H18R           -8.0018355034       26.4575940687       -2.3674996299  MEMB      46              0.0000000000
      6800        74  DOPC      H18S           -8.7730403678       27.9929620261       -2.7419482801  MEMB      46              0.0000000000
      6801        74  DOPC      H18T           -8.2492056650       27.6558936134       -1.0442652585  MEMB      46              0.0000000000
      6802        74  DOPC      C33           -12.4026792972       29.6362080928       15.9409696130  MEMB      46              0.0000000000
      6803        74  DOPC      H3X           -13.4158033734       30.0248389273       15.7819921775  MEMB      46              0.0000000000
      6804        74  DOPC      H3Y           -12.1300938537       29.0079933859       15.0707224331  MEMB      46              0.0000000000
      6805        74  DOPC      C34           -11.5539700858       30.9090490638       15.9985141242  MEMB      46              0.0000000000
      6806        74  DOPC      H4X           -10.4807323084       30.6319429479       16.0066350603  MEMB      46              0.0000000000
      6807        74  DOPC      H4Y           -11.7544749185       31.5031055659       16.9135771786  MEMB      46              0.0000000000
      6808        74  DOPC      C35           -11.8054768164       31.8079764450       14.7705153137  MEMB      46              0.0000000000
      6809        74  DOPC      H5X           -11.2446438568       32.7672573505       14.8766781267  MEMB      46              0.0000000000
      6810        74  DOPC      H5Y           -12.8810399376       32.0616600517       14.6968108812  MEMB      46              0.0000000000
      6811        74  DOPC      C36           -11.3561123888       31.1079584396       13.4887549495  MEMB      46              0.0000000000
      6812        74  DOPC      H6X           -10.2558071959       31.2054822772       13.4558408899  MEMB      46              0.0000000000
      6813        74  DOPC      H6Y           -11.6376269208       30.0354333021       13.5144988070  MEMB      46              0.0000000000
      6814        74  DOPC      C37           -12.0087980389       31.6067677180       12.2107041782  MEMB      46              0.0000000000
      6815        74  DOPC      H7X           -13.1053011608       31.5380703175       12.4172529538  MEMB      46              0.0000000000
      6816        74  DOPC      H7Y           -11.7394562033       32.6731884235       12.0487483544  MEMB      46              0.0000000000
      6817        74  DOPC      C38           -11.6602819828       30.7544891167       10.9763868584  MEMB      46              0.0000000000
      6818        74  DOPC      H8X           -11.6600319975       29.6676071235       11.2315333974  MEMB      46              0.0000000000
      6819        74  DOPC      H8Y           -10.6341820207       31.0060187749       10.6224436825  MEMB      46              0.0000000000
      6820        74  DOPC      C39           -12.7320118267       31.0839122384        9.9653847527  MEMB      46              0.0000000000
      6821        74  DOPC      H9X           -13.4401236698       31.8609029597       10.2900312697  MEMB      46              0.0000000000
      6822        74  DOPC      C310          -12.8931688325       30.5532032291        8.7466539529  MEMB      46              0.0000000000
      6823        74  DOPC      H10X          -13.6824685601       30.9486498599        8.0938825555  MEMB      46              0.0000000000
      6824        74  DOPC      C311          -12.0009176084       29.5068072042        8.1547308650  MEMB      46              0.0000000000
      6825        74  DOPC      H11X          -11.4234173677       28.9987846347        8.9636135695  MEMB      46              0.0000000000
      6826        74  DOPC      H11Y          -11.2890205619       30.0689423639        7.5286817270  MEMB      46              0.0000000000
      6827        74  DOPC      C312          -12.5904979372       28.3888561850        7.2651746403  MEMB      46              0.0000000000
      6828        74  DOPC      H12X          -13.5430008110       28.0628585457        7.7175934689  MEMB      46              0.0000000000
      6829        74  DOPC      H12Y          -11.8931911796       27.5197056892        7.2630283176  MEMB      46              0.0000000000
      6830        74  DOPC      C313          -12.9088897062       28.7860191118        5.8165056824  MEMB      46              0.0000000000
      6831        74  DOPC      H13X          -13.6330627895       29.6304811454        5.9056220427  MEMB      46              0.0000000000
      6832        74  DOPC      H13Y          -12.0258857224       29.1780460600        5.2749618139  MEMB      46              0.0000000000
      6833        74  DOPC      C314          -13.5974012798       27.6493800012        5.0262404299  MEMB      46              0.0000000000
      6834        74  DOPC      H14X          -13.9518040739       26.8754235164        5.7437040626  MEMB      46              0.0000000000
      6835        74  DOPC      H14Y          -14.5149609123       28.0937819381        4.5887891042  MEMB      46              0.0000000000
      6836        74  DOPC      C315          -12.7874608676       26.9139864986        3.9243050191  MEMB      46              0.0000000000
      6837        74  DOPC      H15X          -13.4390246056       26.0925712179        3.5400869422  MEMB      46              0.0000000000
      6838        74  DOPC      H15Y          -11.8972827415       26.4277950982        4.3799792043  MEMB      46              0.0000000000
      6839        74  DOPC      C316          -12.3456103670       27.7537772649        2.7029977253  MEMB      46              0.0000000000
      6840        74  DOPC      H16X          -11.6659552737       28.5602598611        3.0494498421  MEMB      46              0.0000000000
      6841        74  DOPC      H16Y          -11.7683397833       27.1071237542        2.0010512269  MEMB      46              0.0000000000
      6842        74  DOPC      C317          -13.5210044204       28.3849775819        1.9367744807  MEMB      46              0.0000000000
      6843        74  DOPC      H17X          -13.9179645601       27.6613848825        1.1925885531  MEMB      46              0.0000000000
      6844        74  DOPC      H17Y          -14.3073887584       28.5847741953        2.6739610851  MEMB      46              0.0000000000
      6845        74  DOPC      C318          -13.3059659024       29.7653384266        1.3202238917  MEMB      46              0.0000000000
      6846        74  DOPC      H18X          -12.6755882916       29.7040973848        0.4117845580  MEMB      46              0.0000000000
      6847        74  DOPC      H18Y          -14.2739030323       30.2200558407        1.0170683702  MEMB      46              0.0000000000
      6848        74  DOPC      H18Z          -12.8261639420       30.4368257596        2.0636088244  MEMB      46              0.0000000000
      6849        75  DOPC      N             -25.8877076211       23.7820466793       21.3692351410  MEMB      47              0.0000000000
      6850        75  DOPC      C12           -25.5744548339       23.2007600399       19.9924427016  MEMB      47              0.0000000000
      6851        75  DOPC      H12A          -26.4847687644       23.1748414747       19.3930995457  MEMB      47              0.0000000000
      6852        75  DOPC      H12B          -25.2703711406       22.1724467550       20.1360121049  MEMB      47              0.0000000000
      6853        75  DOPC      C13           -26.4513463026       25.1559845221       21.1716820459  MEMB      47              0.0000000000
      6854        75  DOPC      H13A          -26.6201685784       25.6595312373       22.1212830673  MEMB      47              0.0000000000
      6855        75  DOPC      H13B          -25.7550194235       25.7294704219       20.5622176031  MEMB      47              0.0000000000
      6856        75  DOPC      H13C          -27.3879110267       25.1229564715       20.6248088097  MEMB      47              0.0000000000
      6857        75  DOPC      C14           -24.6421926003       23.8787914787       22.1946940240  MEMB      47              0.0000000000
      6858        75  DOPC      H14A          -24.2914730163       22.8985046421       22.5012823025  MEMB      47              0.0000000000
      6859        75  DOPC      H14B          -23.8558439174       24.3546363707       21.6282000035  MEMB      47              0.0000000000
      6860        75  DOPC      H14C          -24.8226680440       24.4563987720       23.1029849069  MEMB      47              0.0000000000
      6861        75  DOPC      C15           -26.8860182928       22.9587853942       22.1163514989  MEMB      47              0.0000000000
      6862        75  DOPC      H15A          -26.5558234443       21.9309260252       22.2159638733  MEMB      47              0.0000000000
      6863        75  DOPC      H15B          -27.8625755627       22.9772215645       21.6465069468  MEMB      47              0.0000000000
      6864        75  DOPC      H15C          -27.0473108036       23.3659136799       23.1135696000  MEMB      47              0.0000000000
      6865        75  DOPC      C11           -24.4649201490       23.9157672675       19.1541746391  MEMB      47              0.0000000000
      6866        75  DOPC      H11A          -23.5307330881       23.9669132312       19.7518248400  MEMB      47              0.0000000000
      6867        75  DOPC      H11B          -24.2254432237       23.2804726343       18.2676596772  MEMB      47              0.0000000000
      6868        75  DOPC      P             -24.8020428309       25.9078091822       17.3556604323  MEMB      47              0.0000000000
      6869        75  DOPC      O13           -23.4901728181       26.5854960458       17.2075891643  MEMB      47              0.0000000000
      6870        75  DOPC      O14           -26.0276797506       26.7238306221       17.2308346867  MEMB      47              0.0000000000
      6871        75  DOPC      O12           -24.8433243126       25.2391938232       18.7915688419  MEMB      47              0.0000000000
      6872        75  DOPC      O11           -24.9109478136       24.6294750788       16.4198249270  MEMB      47              0.0000000000
      6873        75  DOPC      C1            -26.0925163218       23.8113023948       16.4742799160  MEMB      47              0.0000000000
      6874        75  DOPC      HA            -26.8584990255       24.1922164514       17.1933485446  MEMB      47              0.0000000000
      6875        75  DOPC      HB            -25.8150870602       22.7937649880       16.8207060247  MEMB      47              0.0000000000
      6876        75  DOPC      C2            -26.7797151978       23.7041655602       15.0859598850  MEMB      47              0.0000000000
      6877        75  DOPC      HS            -27.5811546660       22.9329119450       15.1269347529  MEMB      47              0.0000000000
      6878        75  DOPC      O21           -25.8633821762       23.3952243923       14.0363045480  MEMB      47              0.0000000000
      6879        75  DOPC      C21           -25.1500612936       22.3246158172       14.1428157502  MEMB      47              0.0000000000
      6880        75  DOPC      O22           -25.3048592599       21.4103681961       14.9291503468  MEMB      47              0.0000000000
      6881        75  DOPC      C22           -24.1600880487       22.3272217880       13.0022809511  MEMB      47              0.0000000000
      6882        75  DOPC      H2R           -24.7128819365       22.3693396688       12.0454866370  MEMB      47              0.0000000000
      6883        75  DOPC      H2S           -23.6161454728       21.3630529170       13.0434296554  MEMB      47              0.0000000000
      6884        75  DOPC      C3            -27.4015236493       25.0600146891       14.7076049003  MEMB      47              0.0000000000
      6885        75  DOPC      HX            -26.6852415479       25.8396756048       15.0510755294  MEMB      47              0.0000000000
      6886        75  DOPC      HY            -28.3524384588       25.2338166798       15.2536123853  MEMB      47              0.0000000000
      6887        75  DOPC      O31           -27.5109548599       25.2314810946       13.2859139045  MEMB      47              0.0000000000
      6888        75  DOPC      C31           -28.4869359676       24.6771672568       12.6252443779  MEMB      47              0.0000000000
      6889        75  DOPC      O32           -29.4590416470       24.0993280913       13.0767035479  MEMB      47              0.0000000000
      6890        75  DOPC      C32           -28.3109644627       25.1082038336       11.1627464742  MEMB      47              0.0000000000
      6891        75  DOPC      H2X           -29.1838690328       25.7323874203       10.8978693763  MEMB      47              0.0000000000
      6892        75  DOPC      H2Y           -27.3919691340       25.7317095393       11.0808982188  MEMB      47              0.0000000000
      6893        75  DOPC      C23           -23.1842833426       23.5060348389       13.1436171203  MEMB      47              0.0000000000
      6894        75  DOPC      H3R           -22.3141052975       23.2506649907       12.5091478529  MEMB      47              0.0000000000
      6895        75  DOPC      H3S           -22.8240283204       23.5975816491       14.1948960447  MEMB      47              0.0000000000
      6896        75  DOPC      C24           -23.6916918821       24.8542101294       12.6140556911  MEMB      47              0.0000000000
      6897        75  DOPC      H4R           -23.0421052176       25.6505054078       13.0427738832  MEMB      47              0.0000000000
      6898        75  DOPC      H4S           -24.7241447763       25.0770384028       12.9557855220  MEMB      47              0.0000000000
      6899        75  DOPC      C25           -23.5862435811       24.8930852134       11.0887910663  MEMB      47              0.0000000000
      6900        75  DOPC      H5R           -24.3142512703       24.1863745632       10.6492116125  MEMB      47              0.0000000000
      6901        75  DOPC      H5S           -22.5863822747       24.4934962033       10.8168726461  MEMB      47              0.0000000000
      6902        75  DOPC      C26           -23.6901282478       26.2945896699       10.4765521897  MEMB      47              0.0000000000
      6903        75  DOPC      H6R           -23.0825120738       27.0011720921       11.0814216007  MEMB      47              0.0000000000
      6904        75  DOPC      H6S           -24.7466960550       26.6478173426       10.5002857236  MEMB      47              0.0000000000
      6905        75  DOPC      C27           -23.1825804991       26.2962931058        9.0292718615  MEMB      47              0.0000000000
      6906        75  DOPC      H7R           -24.0959592695       26.1557126127        8.4077852010  MEMB      47              0.0000000000
      6907        75  DOPC      H7S           -22.5036101613       25.4228200472        8.8799185957  MEMB      47              0.0000000000
      6908        75  DOPC      C28           -22.4430916179       27.5506982730        8.5423394251  MEMB      47              0.0000000000
      6909        75  DOPC      H8R           -21.4388035089       27.6103805280        9.0200337956  MEMB      47              0.0000000000
      6910        75  DOPC      H8S           -23.0215745552       28.4420017713        8.8696417568  MEMB      47              0.0000000000
      6911        75  DOPC      C29           -22.3125832398       27.4782386937        7.0374769488  MEMB      47              0.0000000000
      6912        75  DOPC      H9R           -21.4318235228       26.9363373516        6.6572473942  MEMB      47              0.0000000000
      6913        75  DOPC      C210          -23.1789653322       28.0001972280        6.1512031037  MEMB      47              0.0000000000
      6914        75  DOPC      H10R          -22.9813508395       27.8856911718        5.0770575234  MEMB      47              0.0000000000
      6915        75  DOPC      C211          -24.4371828525       28.7589622232        6.4708004279  MEMB      47              0.0000000000
      6916        75  DOPC      H11R          -24.5896328431       29.5134836837        5.6855647071  MEMB      47              0.0000000000
      6917        75  DOPC      H11S          -24.3220871340       29.3374968459        7.4134206838  MEMB      47              0.0000000000
      6918        75  DOPC      C212          -25.7383762206       27.9418068853        6.5711473555  MEMB      47              0.0000000000
      6919        75  DOPC      H12R          -26.5268603816       28.6426533031        6.9366588249  MEMB      47              0.0000000000
      6920        75  DOPC      H12S          -25.6310279683       27.1541549149        7.3460300932  MEMB      47              0.0000000000
      6921        75  DOPC      C213          -26.2546365546       27.3042714541        5.2643618874  MEMB      47              0.0000000000
      6922        75  DOPC      H13R          -25.5349481498       26.5928367782        4.8394269727  MEMB      47              0.0000000000
      6923        75  DOPC      H13S          -26.3773526871       28.0799758141        4.4857996184  MEMB      47              0.0000000000
      6924        75  DOPC      C214          -27.6399540122       26.6926941701        5.5238319955  MEMB      47              0.0000000000
      6925        75  DOPC      H14R          -28.2395721918       27.6051837231        5.4432930428  MEMB      47              0.0000000000
      6926        75  DOPC      H14S          -27.6957203960       26.3114125152        6.5671563719  MEMB      47              0.0000000000
      6927        75  DOPC      C215          -28.2888178012       25.6525335569        4.5842753697  MEMB      47              0.0000000000
      6928        75  DOPC      H15R          -29.3898652962       25.6906461050        4.7111136546  MEMB      47              0.0000000000
      6929        75  DOPC      H15S          -28.0221175140       24.6357294319        4.9449509533  MEMB      47              0.0000000000
      6930        75  DOPC      C216          -27.9361736208       25.7909009005        3.0938161268  MEMB      47              0.0000000000
      6931        75  DOPC      H16R          -26.8713837589       26.0755990832        3.0082724920  MEMB      47              0.0000000000
      6932        75  DOPC      H16S          -28.5842901632       26.5422657115        2.6154906212  MEMB      47              0.0000000000
      6933        75  DOPC      C217          -28.1823627540       24.5216078178        2.2883986014  MEMB      47              0.0000000000
      6934        75  DOPC      H17R          -29.2449216328       24.3234335471        2.3874252596  MEMB      47              0.0000000000
      6935        75  DOPC      H17S          -27.7295513534       23.6782800745        2.8301592423  MEMB      47              0.0000000000
      6936        75  DOPC      C218          -27.8688021912       24.5435788476        0.7748646935  MEMB      47              0.0000000000
      6937        75  DOPC      H18R          -26.7811619412       24.4668998091        0.5830740985  MEMB      47              0.0000000000
      6938        75  DOPC      H18S          -28.2372311644       25.4668205705        0.2820679661  MEMB      47              0.0000000000
      6939        75  DOPC      H18T          -28.3518644496       23.6653905245        0.2884302192  MEMB      47              0.0000000000
      6940        75  DOPC      C33           -28.2359430139       23.9543432922       10.1564440502  MEMB      47              0.0000000000
      6941        75  DOPC      H3X           -28.5484314367       24.3350883697        9.1547243455  MEMB      47              0.0000000000
      6942        75  DOPC      H3Y           -28.8973651032       23.1078646665       10.4350881232  MEMB      47              0.0000000000
      6943        75  DOPC      C34           -26.8004040043       23.5111802773       10.0396786402  MEMB      47              0.0000000000
      6944        75  DOPC      H4X           -26.4627403884       23.0284621873       10.9815082341  MEMB      47              0.0000000000
      6945        75  DOPC      H4Y           -26.1787716997       24.4266133966        9.8657387607  MEMB      47              0.0000000000
      6946        75  DOPC      C35           -26.4975915065       22.6133685788        8.8535482410  MEMB      47              0.0000000000
      6947        75  DOPC      H5X           -25.4940481478       22.2268250799        9.1184731232  MEMB      47              0.0000000000
      6948        75  DOPC      H5Y           -26.4539555533       23.2943287988        7.9738283522  MEMB      47              0.0000000000
      6949        75  DOPC      C36           -27.4297680699       21.4344020904        8.5278427843  MEMB      47              0.0000000000
      6950        75  DOPC      H6X           -27.5500824191       20.8593208577        9.4657348493  MEMB      47              0.0000000000
      6951        75  DOPC      H6Y           -28.4270578785       21.8291363514        8.2464619233  MEMB      47              0.0000000000
      6952        75  DOPC      C37           -26.9442220135       20.4756316102        7.3968200745  MEMB      47              0.0000000000
      6953        75  DOPC      H7X           -26.1834897559       19.7898763536        7.8223474127  MEMB      47              0.0000000000
      6954        75  DOPC      H7Y           -27.8038563143       19.8412071104        7.0739826182  MEMB      47              0.0000000000
      6955        75  DOPC      C38           -26.3209060782       21.1794511951        6.1641488196  MEMB      47              0.0000000000
      6956        75  DOPC      H8X           -25.8823626938       22.0883670591        6.5447747682  MEMB      47              0.0000000000
      6957        75  DOPC      H8Y           -27.2202589581       21.4737310235        5.5398500463  MEMB      47              0.0000000000
      6958        75  DOPC      C39           -25.3113006556       20.4551973655        5.2632347425  MEMB      47              0.0000000000
      6959        75  DOPC      H9X           -25.7238566957       19.4599656129        5.1723579330  MEMB      47              0.0000000000
      6960        75  DOPC      C310          -24.0880869385       20.6457677063        4.6164495439  MEMB      47              0.0000000000
      6961        75  DOPC      H10X          -23.7571959984       19.6940014231        4.1525437294  MEMB      47              0.0000000000
      6962        75  DOPC      C311          -22.9818056758       21.7043143565        4.2027792793  MEMB      47              0.0000000000
      6963        75  DOPC      H11X          -22.8332558937       21.6101090591        3.1187811729  MEMB      47              0.0000000000
      6964        75  DOPC      H11Y          -22.1251749031       21.0767407716        4.5471783025  MEMB      47              0.0000000000
      6965        75  DOPC      C312          -22.1352482869       23.0681239049        4.5466408348  MEMB      47              0.0000000000
      6966        75  DOPC      H12X          -21.2060452815       22.8798611565        3.9796078771  MEMB      47              0.0000000000
      6967        75  DOPC      H12Y          -21.8708924126       23.0906785034        5.5947102253  MEMB      47              0.0000000000
      6968        75  DOPC      C313          -22.2957198602       24.5965293995        4.2119550506  MEMB      47              0.0000000000
      6969        75  DOPC      H13X          -23.2885412866       25.0639542351        4.2463079515  MEMB      47              0.0000000000
      6970        75  DOPC      H13Y          -21.7187474534       25.1066255895        5.0244399526  MEMB      47              0.0000000000
      6971        75  DOPC      C314          -21.6136323307       25.0462777388        2.9293797301  MEMB      47              0.0000000000
      6972        75  DOPC      H14X          -20.5271873704       25.0760669163        3.1529060299  MEMB      47              0.0000000000
      6973        75  DOPC      H14Y          -21.8353252222       24.2888793978        2.1458115779  MEMB      47              0.0000000000
      6974        75  DOPC      C315          -22.0635640689       26.4255972187        2.4546341718  MEMB      47              0.0000000000
      6975        75  DOPC      H15X          -21.2498917086       26.9655843121        1.9191895300  MEMB      47              0.0000000000
      6976        75  DOPC      H15Y          -22.3321019090       27.0415168055        3.3389194467  MEMB      47              0.0000000000
      6977        75  DOPC      C316          -23.2870021068       26.3103186266        1.5518646017  MEMB      47              0.0000000000
      6978        75  DOPC      H16X          -23.0012177862       26.5127018849        0.5058818789  MEMB      47              0.0000000000
      6979        75  DOPC      H16Y          -23.6812730873       25.2702496384        1.5909386013  MEMB      47              0.0000000000
      6980        75  DOPC      C317          -24.3686508377       27.2929265032        1.9746719942  MEMB      47              0.0000000000
      6981        75  DOPC      H17X          -24.6569768035       27.0453162721        3.0203006997  MEMB      47              0.0000000000
      6982        75  DOPC      H17Y          -23.9280238221       28.3137466708        1.9657828598  MEMB      47              0.0000000000
      6983        75  DOPC      C318          -25.6055278580       27.2555647353        1.0896711300  MEMB      47              0.0000000000
      6984        75  DOPC      H18X          -26.3669858908       27.9745286485        1.4608140157  MEMB      47              0.0000000000
      6985        75  DOPC      H18Y          -25.3723926937       27.4727984321        0.0329873306  MEMB      47              0.0000000000
      6986        75  DOPC      H18Z          -26.0335735806       26.2427414490        1.1170807434  MEMB      47              0.0000000000
      6987        76  DOPC      N              -0.3229005580       32.6586467164       17.7132326081  MEMB      48              0.0000000000
      6988        76  DOPC      C12            -1.5871030897       33.1169133516       18.4570123585  MEMB      48              0.0000000000
      6989        76  DOPC      H12A           -2.4595062699       32.4918286357       18.2542269458  MEMB      48              0.0000000000
      6990        76  DOPC      H12B           -1.9460467744       34.0890589263       18.0989352645  MEMB      48              0.0000000000
      6991        76  DOPC      C13            -0.5140422527       32.7304315919       16.2300191785  MEMB      48              0.0000000000
      6992        76  DOPC      H13A            0.3934763025       32.4648312591       15.7017552541  MEMB      48              0.0000000000
      6993        76  DOPC      H13B           -1.3053162982       32.0735329238       15.8698677597  MEMB      48              0.0000000000
      6994        76  DOPC      H13C           -0.8040403676       33.7348780430       15.9288480590  MEMB      48              0.0000000000
      6995        76  DOPC      C14             0.0922957751       31.2894678679       18.1520750378  MEMB      48              0.0000000000
      6996        76  DOPC      H14A            0.1440526248       31.2706458469       19.2369411801  MEMB      48              0.0000000000
      6997        76  DOPC      H14B           -0.6411198380       30.5460555906       17.8586107738  MEMB      48              0.0000000000
      6998        76  DOPC      H14C            1.0653392168       31.0124232403       17.7582653414  MEMB      48              0.0000000000
      6999        76  DOPC      C15             0.8061915538       33.5743147523       18.0605087340  MEMB      48              0.0000000000
      7000        76  DOPC      H15A            1.7041143427       33.3564925011       17.5003751400  MEMB      48              0.0000000000
      7001        76  DOPC      H15B            0.9778728550       33.5119662756       19.1348663061  MEMB      48              0.0000000000
      7002        76  DOPC      H15C            0.5075957781       34.6062755502       17.8890547215  MEMB      48              0.0000000000
      7003        76  DOPC      C11            -1.4837265135       33.2496106426       19.9931326076  MEMB      48              0.0000000000
      7004        76  DOPC      H11A           -2.5039865799       33.3066609965       20.4464777553  MEMB      48              0.0000000000
      7005        76  DOPC      H11B           -1.0421599031       32.3273775272       20.4237712855  MEMB      48              0.0000000000
      7006        76  DOPC      P              -1.3112659008       35.8391014050       20.4052096904  MEMB      48              0.0000000000
      7007        76  DOPC      O13            -0.3483841236       36.6582945676       21.1969060295  MEMB      48              0.0000000000
      7008        76  DOPC      O14            -2.7018334550       35.8595544402       20.8953915269  MEMB      48              0.0000000000
      7009        76  DOPC      O12            -0.6952609172       34.3771408360       20.3394545552  MEMB      48              0.0000000000
      7010        76  DOPC      O11            -1.2240998672       36.3019425101       18.8913031940  MEMB      48              0.0000000000
      7011        76  DOPC      C1             -1.0688315079       37.7183931364       18.6900753714  MEMB      48              0.0000000000
      7012        76  DOPC      HA             -0.1245893062       38.0805282179       19.1612602436  MEMB      48              0.0000000000
      7013        76  DOPC      HB             -1.9246634815       38.2934421475       19.1048799555  MEMB      48              0.0000000000
      7014        76  DOPC      C2             -0.9459954538       38.0696983614       17.1957397430  MEMB      48              0.0000000000
      7015        76  DOPC      HS             -0.6408352061       39.1414941328       17.1117325110  MEMB      48              0.0000000000
      7016        76  DOPC      O21            -2.2430680541       37.8733358336       16.6082648903  MEMB      48              0.0000000000
      7017        76  DOPC      C21            -2.4984702899       37.1908629515       15.5202124470  MEMB      48              0.0000000000
      7018        76  DOPC      O22            -1.7194527505       36.7431276736       14.6989086337  MEMB      48              0.0000000000
      7019        76  DOPC      C22            -3.9975625502       36.9532335864       15.4762768970  MEMB      48              0.0000000000
      7020        76  DOPC      H2R            -4.3955150031       36.9903294842       14.4560983201  MEMB      48              0.0000000000
      7021        76  DOPC      H2S            -4.5113666439       37.7389132166       16.0636684219  MEMB      48              0.0000000000
      7022        76  DOPC      C3              0.1708862723       37.1945581555       16.6051175837  MEMB      48              0.0000000000
      7023        76  DOPC      HX             -0.2309003319       36.1889074972       16.3356110830  MEMB      48              0.0000000000
      7024        76  DOPC      HY              0.9455065213       37.0294248955       17.3860164022  MEMB      48              0.0000000000
      7025        76  DOPC      O31             0.7397378340       37.9033012916       15.4929372019  MEMB      48              0.0000000000
      7026        76  DOPC      C31             1.6424404084       37.1486756389       14.8974200320  MEMB      48              0.0000000000
      7027        76  DOPC      O32             1.9968474246       36.0459221698       15.2791851435  MEMB      48              0.0000000000
      7028        76  DOPC      C32             2.1242600256       37.8193920237       13.6248898380  MEMB      48              0.0000000000
      7029        76  DOPC      H2X             2.5623128873       38.7954600611       13.9217368051  MEMB      48              0.0000000000
      7030        76  DOPC      H2Y             2.9244673789       37.1954281040       13.1775696039  MEMB      48              0.0000000000
      7031        76  DOPC      C23            -4.2939318115       35.5838010416       16.0736468118  MEMB      48              0.0000000000
      7032        76  DOPC      H3R            -5.3906968469       35.4046721449       16.0656394402  MEMB      48              0.0000000000
      7033        76  DOPC      H3S            -3.9738637240       35.6428221203       17.1413091488  MEMB      48              0.0000000000
      7034        76  DOPC      C24            -3.5698499464       34.3850950199       15.4275758629  MEMB      48              0.0000000000
      7035        76  DOPC      H4R            -3.9780309520       33.4541179151       15.8915001954  MEMB      48              0.0000000000
      7036        76  DOPC      H4S            -2.5037386666       34.4697724402       15.7242810697  MEMB      48              0.0000000000
      7037        76  DOPC      C25            -3.6222207865       34.2207492828       13.8946547877  MEMB      48              0.0000000000
      7038        76  DOPC      H5R            -3.5165494956       35.2035981823       13.4028599864  MEMB      48              0.0000000000
      7039        76  DOPC      H5S            -4.5993619629       33.7802501327       13.5986949872  MEMB      48              0.0000000000
      7040        76  DOPC      C26            -2.4492920087       33.3366093086       13.4385518148  MEMB      48              0.0000000000
      7041        76  DOPC      H6R            -2.5692148194       32.3370356543       13.9181965844  MEMB      48              0.0000000000
      7042        76  DOPC      H6S            -1.5179578029       33.8096513512       13.8247174767  MEMB      48              0.0000000000
      7043        76  DOPC      C27            -2.2580506362       33.1434721476       11.9295678961  MEMB      48              0.0000000000
      7044        76  DOPC      H7R            -1.8442254595       34.0701196476       11.4797108640  MEMB      48              0.0000000000
      7045        76  DOPC      H7S            -3.2444227973       32.9427537828       11.4507601830  MEMB      48              0.0000000000
      7046        76  DOPC      C28            -1.3324363355       31.9398744995       11.6441274515  MEMB      48              0.0000000000
      7047        76  DOPC      H8R            -1.3336580083       31.7330190163       10.5518672801  MEMB      48              0.0000000000
      7048        76  DOPC      H8S            -1.8237616976       31.0768721241       12.1494810747  MEMB      48              0.0000000000
      7049        76  DOPC      C29             0.0750737577       32.0501711421       12.1747780553  MEMB      48              0.0000000000
      7050        76  DOPC      H9R             0.1772601760       32.6382348507       13.0971933281  MEMB      48              0.0000000000
      7051        76  DOPC      C210            1.1771467243       31.4791538249       11.6591726128  MEMB      48              0.0000000000
      7052        76  DOPC      H10R            2.1374324437       31.6416869235       12.1761775610  MEMB      48              0.0000000000
      7053        76  DOPC      C211            1.2748414535       30.5972620901       10.4355982661  MEMB      48              0.0000000000
      7054        76  DOPC      H11R            0.3259745017       30.0633372098       10.2091388148  MEMB      48              0.0000000000
      7055        76  DOPC      H11S            2.0452571169       29.8236529797       10.6492906540  MEMB      48              0.0000000000
      7056        76  DOPC      C212            1.7447994255       31.3385846299        9.1693650398  MEMB      48              0.0000000000
      7057        76  DOPC      H12R            2.5556038385       30.7640728064        8.6831063714  MEMB      48              0.0000000000
      7058        76  DOPC      H12S            2.1711430016       32.3024649003        9.4888918672  MEMB      48              0.0000000000
      7059        76  DOPC      C213            0.6705005684       31.6806786780        8.1303402365  MEMB      48              0.0000000000
      7060        76  DOPC      H13R           -0.1106494415       32.2163087064        8.7117773993  MEMB      48              0.0000000000
      7061        76  DOPC      H13S            0.1869062964       30.7914123944        7.6938461954  MEMB      48              0.0000000000
      7062        76  DOPC      C214            1.1664809806       32.6797788301        7.0652328948  MEMB      48              0.0000000000
      7063        76  DOPC      H14R            1.8486883181       33.3720330011        7.5814556701  MEMB      48              0.0000000000
      7064        76  DOPC      H14S            0.3349661917       33.3061979912        6.7669655702  MEMB      48              0.0000000000
      7065        76  DOPC      C215            1.7446499717       32.2033598293        5.7239794681  MEMB      48              0.0000000000
      7066        76  DOPC      H15R            2.1865963653       31.2029968833        5.8406349984  MEMB      48              0.0000000000
      7067        76  DOPC      H15S            2.5720906784       32.8924636432        5.4763200409  MEMB      48              0.0000000000
      7068        76  DOPC      C216            0.8189585923       32.3682151678        4.4972724629  MEMB      48              0.0000000000
      7069        76  DOPC      H16R            0.3255770940       33.3666546692        4.5643625510  MEMB      48              0.0000000000
      7070        76  DOPC      H16S            0.0114479854       31.6040005627        4.5201326469  MEMB      48              0.0000000000
      7071        76  DOPC      C217            1.5513738127       32.3376790704        3.1343115344  MEMB      48              0.0000000000
      7072        76  DOPC      H17R            1.5682690076       33.3620636411        2.7181988627  MEMB      48              0.0000000000
      7073        76  DOPC      H17S            0.9309566157       31.7681908147        2.4059792385  MEMB      48              0.0000000000
      7074        76  DOPC      C218            2.9882146262       31.7849450391        3.1427711481  MEMB      48              0.0000000000
      7075        76  DOPC      H18R            3.7167448797       32.5482340968        3.4681286127  MEMB      48              0.0000000000
      7076        76  DOPC      H18S            3.2599168086       31.4009933095        2.1420423873  MEMB      48              0.0000000000
      7077        76  DOPC      H18T            3.1113390912       30.9415163598        3.8405623886  MEMB      48              0.0000000000
      7078        76  DOPC      C33             0.9481788523       38.0324413019       12.6506300812  MEMB      48              0.0000000000
      7079        76  DOPC      H3X             1.2455728557       38.7865160820       11.8896034443  MEMB      48              0.0000000000
      7080        76  DOPC      H3Y             0.0683429977       38.4536745405       13.1952340133  MEMB      48              0.0000000000
      7081        76  DOPC      C34             0.5172572582       36.7545865391       11.9211141284  MEMB      48              0.0000000000
      7082        76  DOPC      H4X            -0.4674854051       36.9593145782       11.4535094854  MEMB      48              0.0000000000
      7083        76  DOPC      H4Y             0.3527804852       35.9235330501       12.6423707381  MEMB      48              0.0000000000
      7084        76  DOPC      C35             1.5055487659       36.3360940915       10.8255111132  MEMB      48              0.0000000000
      7085        76  DOPC      H5X             2.3612769111       35.8364611214       11.3196799221  MEMB      48              0.0000000000
      7086        76  DOPC      H5Y             1.9108328056       37.2415151148       10.3240279263  MEMB      48              0.0000000000
      7087        76  DOPC      C36             0.8687295688       35.4235474460        9.7601240184  MEMB      48              0.0000000000
      7088        76  DOPC      H6X             1.6674913973       34.9459570028        9.1652578623  MEMB      48              0.0000000000
      7089        76  DOPC      H6Y             0.2983247020       34.6166083813       10.2696608069  MEMB      48              0.0000000000
      7090        76  DOPC      C37             0.0055496903       36.2224342577        8.7660510989  MEMB      48              0.0000000000
      7091        76  DOPC      H7X            -0.6382792108       36.9210964106        9.3404381312  MEMB      48              0.0000000000
      7092        76  DOPC      H7Y             0.7043375713       36.8453663967        8.1601394655  MEMB      48              0.0000000000
      7093        76  DOPC      C38            -0.8982242084       35.4278859362        7.7890830037  MEMB      48              0.0000000000
      7094        76  DOPC      H8X            -0.2892899241       35.0448703396        6.9564781339  MEMB      48              0.0000000000
      7095        76  DOPC      H8Y            -1.5513992535       36.1850039022        7.3039450484  MEMB      48              0.0000000000
      7096        76  DOPC      C39            -1.8023705779       34.3959618099        8.4274386513  MEMB      48              0.0000000000
      7097        76  DOPC      H9X            -2.0067091903       34.6183620675        9.4862451980  MEMB      48              0.0000000000
      7098        76  DOPC      C310           -2.3468367067       33.2649345306        7.9318040840  MEMB      48              0.0000000000
      7099        76  DOPC      H10X           -2.9717309380       32.6893200408        8.6266666178  MEMB      48              0.0000000000
      7100        76  DOPC      C311           -2.2333336581       32.6245516097        6.5642281304  MEMB      48              0.0000000000
      7101        76  DOPC      H11X           -2.0379346322       31.5450499269        6.7228105187  MEMB      48              0.0000000000
      7102        76  DOPC      H11Y           -1.3456272954       32.9802362871        6.0190462913  MEMB      48              0.0000000000
      7103        76  DOPC      C312           -3.3404917448       32.7928826506        5.5042205118  MEMB      48              0.0000000000
      7104        76  DOPC      H12X           -4.3529501926       32.6014814830        5.9071202110  MEMB      48              0.0000000000
      7105        76  DOPC      H12Y           -3.1704876579       32.0003591241        4.7360907993  MEMB      48              0.0000000000
      7106        76  DOPC      C313           -3.2115426916       34.1498090044        4.7874311007  MEMB      48              0.0000000000
      7107        76  DOPC      H13X           -4.0369442632       34.8310697924        5.0808340026  MEMB      48              0.0000000000
      7108        76  DOPC      H13Y           -2.2753747237       34.6390600289        5.1382855998  MEMB      48              0.0000000000
      7109        76  DOPC      C314           -3.1214274999       34.0086026270        3.2574124610  MEMB      48              0.0000000000
      7110        76  DOPC      H14X           -2.5029565686       33.1194739965        3.0002423281  MEMB      48              0.0000000000
      7111        76  DOPC      H14Y           -4.1508568312       33.8404191297        2.8647506714  MEMB      48              0.0000000000
      7112        76  DOPC      C315           -2.5145222138       35.2314937052        2.5507239057  MEMB      48              0.0000000000
      7113        76  DOPC      H15X           -3.0636478030       36.1401547647        2.8856145335  MEMB      48              0.0000000000
      7114        76  DOPC      H15Y           -2.6767627025       35.1226723543        1.4540214158  MEMB      48              0.0000000000
      7115        76  DOPC      C316           -1.0074827422       35.4433975714        2.7815447568  MEMB      48              0.0000000000
      7116        76  DOPC      H16X           -0.7607708071       35.3618806446        3.8617059418  MEMB      48              0.0000000000
      7117        76  DOPC      H16Y           -0.4337135390       34.6534421486        2.2487039957  MEMB      48              0.0000000000
      7118        76  DOPC      C317           -0.5578471936       36.8191593732        2.2755592324  MEMB      48              0.0000000000
      7119        76  DOPC      H17X           -1.1657188814       37.5807210861        2.8038108364  MEMB      48              0.0000000000
      7120        76  DOPC      H17Y            0.4857808242       37.0410392194        2.5730018357  MEMB      48              0.0000000000
      7121        76  DOPC      C318           -0.6762934046       36.9659337130        0.7536698481  MEMB      48              0.0000000000
      7122        76  DOPC      H18X           -1.7337938975       37.1021870500        0.4403861454  MEMB      48              0.0000000000
      7123        76  DOPC      H18Y           -0.0836200601       37.8296887223        0.3891606272  MEMB      48              0.0000000000
      7124        76  DOPC      H18Z           -0.2919980154       36.0543816457        0.2549625186  MEMB      48              0.0000000000
      7125        77  DOPC      N               7.1613078960       34.7413281371       20.9607529574  MEMB      49              0.0000000000
      7126        77  DOPC      C12             6.8585195450       36.1659100901       20.4926226972  MEMB      49              0.0000000000
      7127        77  DOPC      H12A            6.5253809604       36.7676825341       21.3237204945  MEMB      49              0.0000000000
      7128        77  DOPC      H12B            6.0642281374       36.1167088328       19.7449035923  MEMB      49              0.0000000000
      7129        77  DOPC      C13             6.0391785548       34.0647711260       21.6651914598  MEMB      49              0.0000000000
      7130        77  DOPC      H13A            6.3009168700       33.0407389758       21.9567328364  MEMB      49              0.0000000000
      7131        77  DOPC      H13B            5.6660710174       34.5874997844       22.5426718795  MEMB      49              0.0000000000
      7132        77  DOPC      H13C            5.1873774358       33.9303770747       21.0117598939  MEMB      49              0.0000000000
      7133        77  DOPC      C14             8.4568973371       34.6432475440       21.7077389538  MEMB      49              0.0000000000
      7134        77  DOPC      H14A            8.4933104058       35.1891327914       22.6421387412  MEMB      49              0.0000000000
      7135        77  DOPC      H14B            8.7194999711       33.5983513177       21.8750512928  MEMB      49              0.0000000000
      7136        77  DOPC      H14C            9.2387412049       35.0333154165       21.0517815189  MEMB      49              0.0000000000
      7137        77  DOPC      C15             7.3488222803       33.9322532666       19.7367341828  MEMB      49              0.0000000000
      7138        77  DOPC      H15A            6.6186805439       34.1935805996       18.9712877723  MEMB      49              0.0000000000
      7139        77  DOPC      H15B            7.3167658641       32.8724410016       19.9183054054  MEMB      49              0.0000000000
      7140        77  DOPC      H15C            8.3028768849       34.2015157024       19.2804471960  MEMB      49              0.0000000000
      7141        77  DOPC      C11             7.9665571155       36.9612130668       19.7445768196  MEMB      49              0.0000000000
      7142        77  DOPC      H11A            7.6108275708       38.0144192159       19.6067341059  MEMB      49              0.0000000000
      7143        77  DOPC      H11B            8.8861229637       37.0280122714       20.3593405035  MEMB      49              0.0000000000
      7144        77  DOPC      P               7.2940708781       36.5633779028       17.2708074822  MEMB      49              0.0000000000
      7145        77  DOPC      O13             7.4625443025       37.9494463945       16.7810646218  MEMB      49              0.0000000000
      7146        77  DOPC      O14             5.9451608807       36.1146060903       17.7300783601  MEMB      49              0.0000000000
      7147        77  DOPC      O12             8.2912412832       36.3533916045       18.4982984037  MEMB      49              0.0000000000
      7148        77  DOPC      O11             7.8671551475       35.4991927619       16.2463762673  MEMB      49              0.0000000000
      7149        77  DOPC      C1              8.5235311771       34.2948417893       16.6660590687  MEMB      49              0.0000000000
      7150        77  DOPC      HA              7.9812194121       33.7891533521       17.4723316282  MEMB      49              0.0000000000
      7151        77  DOPC      HB              9.5571870264       34.5471333598       16.9957370480  MEMB      49              0.0000000000
      7152        77  DOPC      C2              8.5986109651       33.1883828622       15.5743408524  MEMB      49              0.0000000000
      7153        77  DOPC      HS              9.5980822290       32.7030021494       15.6624466196  MEMB      49              0.0000000000
      7154        77  DOPC      O21             8.4702494882       33.8511652224       14.3284481101  MEMB      49              0.0000000000
      7155        77  DOPC      C21             8.8146924553       33.2303257454       13.2458435217  MEMB      49              0.0000000000
      7156        77  DOPC      O22             9.2123167333       32.0833594879       13.1421557847  MEMB      49              0.0000000000
      7157        77  DOPC      C22             8.5861276215       34.2488337670       12.1373184314  MEMB      49              0.0000000000
      7158        77  DOPC      H2R             9.3746484270       35.0250705429       12.2243836978  MEMB      49              0.0000000000
      7159        77  DOPC      H2S             7.6033899877       34.7355020852       12.3139992864  MEMB      49              0.0000000000
      7160        77  DOPC      C3              7.5199213825       32.0549312158       15.7249361340  MEMB      49              0.0000000000
      7161        77  DOPC      HX              7.8031421721       31.4184137523       16.5922180537  MEMB      49              0.0000000000
      7162        77  DOPC      HY              7.5967642494       31.4263204854       14.8133342397  MEMB      49              0.0000000000
      7163        77  DOPC      O31             6.1759421517       32.5491512360       15.9114045077  MEMB      49              0.0000000000
      7164        77  DOPC      C31             5.1948956221       31.7747673709       15.4362644086  MEMB      49              0.0000000000
      7165        77  DOPC      O32             5.3350761589       30.7170654623       14.8531057153  MEMB      49              0.0000000000
      7166        77  DOPC      C32             3.8647901331       32.5175526859       15.5669038167  MEMB      49              0.0000000000
      7167        77  DOPC      H2X             3.0768702240       31.7603039707       15.3676685270  MEMB      49              0.0000000000
      7168        77  DOPC      H2Y             3.7542702373       32.9076927642       16.5939281836  MEMB      49              0.0000000000
      7169        77  DOPC      C23             8.6133944869       33.6147151882       10.7476539782  MEMB      49              0.0000000000
      7170        77  DOPC      H3R             7.8019353564       32.8716033296       10.6488889078  MEMB      49              0.0000000000
      7171        77  DOPC      H3S             9.5804044699       33.0697561896       10.6205989297  MEMB      49              0.0000000000
      7172        77  DOPC      C24             8.4883437412       34.6505775857        9.6303141752  MEMB      49              0.0000000000
      7173        77  DOPC      H4R             8.8306334439       34.0930624664        8.7431169415  MEMB      49              0.0000000000
      7174        77  DOPC      H4S             9.1391033334       35.5167391766        9.8139298706  MEMB      49              0.0000000000
      7175        77  DOPC      C25             7.1092129744       35.2111558279        9.3163479320  MEMB      49              0.0000000000
      7176        77  DOPC      H5R             6.5411389009       35.3450073717       10.2623189600  MEMB      49              0.0000000000
      7177        77  DOPC      H5S             6.6340884831       34.4445904248        8.6767087897  MEMB      49              0.0000000000
      7178        77  DOPC      C26             7.0770816913       36.5198293743        8.5068146849  MEMB      49              0.0000000000
      7179        77  DOPC      H6R             7.7172853686       36.4042863852        7.6039059844  MEMB      49              0.0000000000
      7180        77  DOPC      H6S             7.4998128218       37.3411881481        9.1247976928  MEMB      49              0.0000000000
      7181        77  DOPC      C27             5.6598899154       36.9178476216        8.0382549979  MEMB      49              0.0000000000
      7182        77  DOPC      H7R             4.9711859092       36.9208161207        8.9125956268  MEMB      49              0.0000000000
      7183        77  DOPC      H7S             5.2900653575       36.1533665722        7.3171721373  MEMB      49              0.0000000000
      7184        77  DOPC      C28             5.6544969583       38.3066492179        7.3643754317  MEMB      49              0.0000000000
      7185        77  DOPC      H8R             6.3614244910       38.2508606560        6.5070758316  MEMB      49              0.0000000000
      7186        77  DOPC      H8S             6.0962002173       39.0268641501        8.0887862381  MEMB      49              0.0000000000
      7187        77  DOPC      C29             4.3068979274       38.8344476859        6.9294060395  MEMB      49              0.0000000000
      7188        77  DOPC      H9R             3.6889304105       39.2502945561        7.7406667139  MEMB      49              0.0000000000
      7189        77  DOPC      C210            3.8023538327       38.8398842753        5.6812322411  MEMB      49              0.0000000000
      7190        77  DOPC      H10R            2.8069088866       39.2823820078        5.5147889150  MEMB      49              0.0000000000
      7191        77  DOPC      C211            4.4568861644       38.3170790713        4.4252983242  MEMB      49              0.0000000000
      7192        77  DOPC      H11R            5.5664250447       38.2968234741        4.4949349714  MEMB      49              0.0000000000
      7193        77  DOPC      H11S            4.2018514554       38.9823258936        3.5708136042  MEMB      49              0.0000000000
      7194        77  DOPC      C212            3.9485092710       36.8994413930        4.1099180634  MEMB      49              0.0000000000
      7195        77  DOPC      H12R            2.9126334971       36.7787877128        4.5035019619  MEMB      49              0.0000000000
      7196        77  DOPC      H12S            4.5721195828       36.1468897979        4.6408561215  MEMB      49              0.0000000000
      7197        77  DOPC      C213            3.8815908376       36.5942437885        2.6044396023  MEMB      49              0.0000000000
      7198        77  DOPC      H13R            4.8631698240       36.2447411376        2.2274431329  MEMB      49              0.0000000000
      7199        77  DOPC      H13S            3.6212165769       37.5159286531        2.0417593157  MEMB      49              0.0000000000
      7200        77  DOPC      C214            2.8353479309       35.5179956771        2.3238556728  MEMB      49              0.0000000000
      7201        77  DOPC      H14R            1.9288035869       35.7193933617        2.9324097645  MEMB      49              0.0000000000
      7202        77  DOPC      H14S            3.2471745046       34.5550454385        2.6909565232  MEMB      49              0.0000000000
      7203        77  DOPC      C215            2.4443326055       35.3641136524        0.8475333520  MEMB      49              0.0000000000
      7204        77  DOPC      H15R            2.3395940079       36.3545665225        0.3529417283  MEMB      49              0.0000000000
      7205        77  DOPC      H15S            1.4388901292       34.8834623204        0.8160967404  MEMB      49              0.0000000000
      7206        77  DOPC      C216            3.4381961753       34.4446271022        0.1198670778  MEMB      49              0.0000000000
      7207        77  DOPC      H16R            3.7186547310       33.6428882878        0.8407191520  MEMB      49              0.0000000000
      7208        77  DOPC      H16S            4.3547851358       35.0152855381       -0.1340045329  MEMB      49              0.0000000000
      7209        77  DOPC      C217            2.8637323763       33.7371435298       -1.1130525821  MEMB      49              0.0000000000
      7210        77  DOPC      H17R            2.5850869710       34.4940653765       -1.8788820191  MEMB      49              0.0000000000
      7211        77  DOPC      H17S            1.9435669071       33.2108915289       -0.7776067550  MEMB      49              0.0000000000
      7212        77  DOPC      C218            3.7556468406       32.6729818520       -1.7499439669  MEMB      49              0.0000000000
      7213        77  DOPC      H18R            3.1452101357       31.8349834087       -2.1532690788  MEMB      49              0.0000000000
      7214        77  DOPC      H18S            4.4381190160       32.2731117625       -0.9796968135  MEMB      49              0.0000000000
      7215        77  DOPC      H18T            4.3593752850       33.0858343798       -2.5818810623  MEMB      49              0.0000000000
      7216        77  DOPC      C33             3.7983997405       33.6327180356       14.5026481245  MEMB      49              0.0000000000
      7217        77  DOPC      H3X             4.3328763535       34.5471966381       14.8502736683  MEMB      49              0.0000000000
      7218        77  DOPC      H3Y             2.7372649023       33.9085979179       14.3210714530  MEMB      49              0.0000000000
      7219        77  DOPC      C34             4.4336971688       33.1590165380       13.1984840655  MEMB      49              0.0000000000
      7220        77  DOPC      H4X             4.1574425289       32.0892723631       13.0356322919  MEMB      49              0.0000000000
      7221        77  DOPC      H4Y             5.5475300756       33.2014965277       13.2750727007  MEMB      49              0.0000000000
      7222        77  DOPC      C35             4.0119896197       33.8988584652       11.9513472796  MEMB      49              0.0000000000
      7223        77  DOPC      H5X             4.4090317571       34.9383102548       11.9368579452  MEMB      49              0.0000000000
      7224        77  DOPC      H5Y             2.9026614510       33.9225067302       11.8723317090  MEMB      49              0.0000000000
      7225        77  DOPC      C36             4.5700025434       33.0831909782       10.8079003842  MEMB      49              0.0000000000
      7226        77  DOPC      H6X             5.6639643635       32.9382205085       10.9438790321  MEMB      49              0.0000000000
      7227        77  DOPC      H6Y             4.0899091040       32.0756017145       10.8203574565  MEMB      49              0.0000000000
      7228        77  DOPC      C37             4.3251210965       33.6781029792        9.4566727553  MEMB      49              0.0000000000
      7229        77  DOPC      H7X             3.2484240420       33.8548871088        9.3281838213  MEMB      49              0.0000000000
      7230        77  DOPC      H7Y             4.7418021748       34.6936166282        9.3682199310  MEMB      49              0.0000000000
      7231        77  DOPC      C38             4.8589325303       32.6777880437        8.4432087822  MEMB      49              0.0000000000
      7232        77  DOPC      H8X             4.3683658348       31.6964234391        8.5856722986  MEMB      49              0.0000000000
      7233        77  DOPC      H8Y             5.9509885905       32.5077995870        8.5395685310  MEMB      49              0.0000000000
      7234        77  DOPC      C39             4.4598767533       33.2273704441        7.1388991755  MEMB      49              0.0000000000
      7235        77  DOPC      H9X             3.6113655713       33.9218003671        7.1562862278  MEMB      49              0.0000000000
      7236        77  DOPC      C310            5.0852427761       33.1276323460        5.9964000982  MEMB      49              0.0000000000
      7237        77  DOPC      H10X            4.5449314764       33.6067278890        5.1810287922  MEMB      49              0.0000000000
      7238        77  DOPC      C311            6.3758489127       32.4497444907        5.6624051789  MEMB      49              0.0000000000
      7239        77  DOPC      H11X            6.2332130055       31.5186708813        5.0723438257  MEMB      49              0.0000000000
      7240        77  DOPC      H11Y            7.0167065499       32.2310693749        6.5473326795  MEMB      49              0.0000000000
      7241        77  DOPC      C312            7.0170139667       33.5324342100        4.8068803924  MEMB      49              0.0000000000
      7242        77  DOPC      H12X            8.0356738969       33.2094234754        4.5079461187  MEMB      49              0.0000000000
      7243        77  DOPC      H12Y            7.1504278275       34.4657408353        5.4053209001  MEMB      49              0.0000000000
      7244        77  DOPC      C313            6.2242253681       33.8124243560        3.5193984519  MEMB      49              0.0000000000
      7245        77  DOPC      H13X            5.9950505262       32.8392508316        3.0298434032  MEMB      49              0.0000000000
      7246        77  DOPC      H13Y            5.2633300970       34.3461965565        3.6559030552  MEMB      49              0.0000000000
      7247        77  DOPC      C314            7.0322788385       34.6800090189        2.6045998232  MEMB      49              0.0000000000
      7248        77  DOPC      H14X            7.8895338496       34.0277021510        2.3562978100  MEMB      49              0.0000000000
      7249        77  DOPC      H14Y            6.4634974489       34.8904943826        1.6700400423  MEMB      49              0.0000000000
      7250        77  DOPC      C315            7.5282321290       35.9815561927        3.2413597191  MEMB      49              0.0000000000
      7251        77  DOPC      H15X            8.0817879588       35.8300945629        4.1904334259  MEMB      49              0.0000000000
      7252        77  DOPC      H15Y            6.6658185854       36.6512269933        3.4575059611  MEMB      49              0.0000000000
      7253        77  DOPC      C316            8.4420467311       36.6527927592        2.2403313614  MEMB      49              0.0000000000
      7254        77  DOPC      H16X            7.8132951383       36.6581622395        1.3178917398  MEMB      49              0.0000000000
      7255        77  DOPC      H16Y            8.6748286321       37.7024659021        2.5151653346  MEMB      49              0.0000000000
      7256        77  DOPC      C317            9.7324941073       35.8851166144        1.9296545068  MEMB      49              0.0000000000
      7257        77  DOPC      H17X           10.5622751452       36.2519887177        2.5717380174  MEMB      49              0.0000000000
      7258        77  DOPC      H17Y            9.6361791915       34.8089548590        2.1478408230  MEMB      49              0.0000000000
      7259        77  DOPC      C318           10.0772077574       36.0036535568        0.4557596681  MEMB      49              0.0000000000
      7260        77  DOPC      H18X           10.3631760552       37.0496215472        0.2461343969  MEMB      49              0.0000000000
      7261        77  DOPC      H18Y           10.9071307023       35.3455869571        0.1391737561  MEMB      49              0.0000000000
      7262        77  DOPC      H18Z            9.1914111886       35.7529162773       -0.1638803186  MEMB      49              0.0000000000
      7263        78  DOPC      N             -35.8147073418       10.4359886036       18.4956868763  MEMB      50              0.0000000000
      7264        78  DOPC      C12           -35.8190070735       11.8169084942       17.8636785051  MEMB      50              0.0000000000
      7265        78  DOPC      H12A          -36.5119205819       12.4745086630       18.3830821960  MEMB      50              0.0000000000
      7266        78  DOPC      H12B          -36.1681114061       11.7641443265       16.8390503892  MEMB      50              0.0000000000
      7267        78  DOPC      C13           -35.6823911669       10.6301332420       19.9817930543  MEMB      50              0.0000000000
      7268        78  DOPC      H13A          -36.5464809940       11.1330290881       20.4025378747  MEMB      50              0.0000000000
      7269        78  DOPC      H13B          -35.5671648031        9.6813205549       20.4867710164  MEMB      50              0.0000000000
      7270        78  DOPC      H13C          -34.7971359445       11.2323309018       20.1869424812  MEMB      50              0.0000000000
      7271        78  DOPC      C14           -34.5893041004        9.6863557122       18.0412583427  MEMB      50              0.0000000000
      7272        78  DOPC      H14A          -33.7176828654       10.3133754127       18.2401718104  MEMB      50              0.0000000000
      7273        78  DOPC      H14B          -34.3920445252        8.7796604484       18.6162916145  MEMB      50              0.0000000000
      7274        78  DOPC      H14C          -34.5993163969        9.4433419478       16.9975463085  MEMB      50              0.0000000000
      7275        78  DOPC      C15           -37.0509126979        9.6391694306       18.2674971230  MEMB      50              0.0000000000
      7276        78  DOPC      H15A          -36.9549459501        8.6397244486       18.6957419171  MEMB      50              0.0000000000
      7277        78  DOPC      H15B          -37.2987431022        9.5548988866       17.2207919069  MEMB      50              0.0000000000
      7278        78  DOPC      H15C          -37.8791177531       10.0760927034       18.8196244687  MEMB      50              0.0000000000
      7279        78  DOPC      C11           -34.4361401723       12.5336664492       17.8431253953  MEMB      50              0.0000000000
      7280        78  DOPC      H11A          -33.9494886816       12.2521103486       16.8801270234  MEMB      50              0.0000000000
      7281        78  DOPC      H11B          -34.6306777845       13.6340819991       17.7905452699  MEMB      50              0.0000000000
      7282        78  DOPC      P             -32.8003722475       13.2475735441       19.7824567498  MEMB      50              0.0000000000
      7283        78  DOPC      O13           -31.6908800730       12.5989028376       20.5267111249  MEMB      50              0.0000000000
      7284        78  DOPC      O14           -33.7993127424       14.0368284754       20.5314239003  MEMB      50              0.0000000000
      7285        78  DOPC      O12           -33.5728331212       12.1618771890       18.9418405568  MEMB      50              0.0000000000
      7286        78  DOPC      O11           -32.1534800066       14.0736985318       18.5844668354  MEMB      50              0.0000000000
      7287        78  DOPC      C1            -31.3179670102       13.2100974529       17.7765137813  MEMB      50              0.0000000000
      7288        78  DOPC      HA            -31.9305165476       12.5052633779       17.1703420348  MEMB      50              0.0000000000
      7289        78  DOPC      HB            -30.5963410252       12.6060119194       18.3861928721  MEMB      50              0.0000000000
      7290        78  DOPC      C2            -30.4192004054       13.9325746127       16.7660615724  MEMB      50              0.0000000000
      7291        78  DOPC      HS            -29.6572999667       14.4980740868       17.3463062655  MEMB      50              0.0000000000
      7292        78  DOPC      O21           -31.1760902195       14.8001388181       15.9050716213  MEMB      50              0.0000000000
      7293        78  DOPC      C21           -31.3515383709       16.0284500347       16.3638396885  MEMB      50              0.0000000000
      7294        78  DOPC      O22           -30.8235402285       16.5424507986       17.3318517067  MEMB      50              0.0000000000
      7295        78  DOPC      C22           -32.3012556135       16.7864219064       15.4367678795  MEMB      50              0.0000000000
      7296        78  DOPC      H2R           -31.7895726030       16.9547794031       14.4685374273  MEMB      50              0.0000000000
      7297        78  DOPC      H2S           -32.4640316612       17.7785348813       15.9165719041  MEMB      50              0.0000000000
      7298        78  DOPC      C3            -29.7178886148       12.8037336282       15.9489092068  MEMB      50              0.0000000000
      7299        78  DOPC      HX            -30.4700555952       12.0400884391       15.6487751381  MEMB      50              0.0000000000
      7300        78  DOPC      HY            -28.9915210396       12.3132304890       16.6359490780  MEMB      50              0.0000000000
      7301        78  DOPC      O31           -29.0135221263       13.3526597085       14.8348723672  MEMB      50              0.0000000000
      7302        78  DOPC      C31           -29.4887192456       13.1879489633       13.6506015776  MEMB      50              0.0000000000
      7303        78  DOPC      O32           -30.2031714521       12.2823936428       13.2511193914  MEMB      50              0.0000000000
      7304        78  DOPC      C32           -29.0375031416       14.4074253472       12.8557952397  MEMB      50              0.0000000000
      7305        78  DOPC      H2X           -29.3375830068       15.3088438251       13.4330658462  MEMB      50              0.0000000000
      7306        78  DOPC      H2Y           -27.9268484183       14.3791433618       12.8315138370  MEMB      50              0.0000000000
      7307        78  DOPC      C23           -33.6618062503       16.0740830579       15.2371468636  MEMB      50              0.0000000000
      7308        78  DOPC      H3R           -34.3465984765       16.8007799625       14.7618183386  MEMB      50              0.0000000000
      7309        78  DOPC      H3S           -34.1079650942       15.8067480575       16.2197044805  MEMB      50              0.0000000000
      7310        78  DOPC      C24           -33.6240242291       14.8494747575       14.3106306392  MEMB      50              0.0000000000
      7311        78  DOPC      H4R           -33.0575020841       14.0295062560       14.8053932933  MEMB      50              0.0000000000
      7312        78  DOPC      H4S           -33.0802168365       15.1069370689       13.3772698606  MEMB      50              0.0000000000
      7313        78  DOPC      C25           -35.0152034583       14.2975690440       13.9540481990  MEMB      50              0.0000000000
      7314        78  DOPC      H5R           -35.5348535120       14.0364073875       14.9034051861  MEMB      50              0.0000000000
      7315        78  DOPC      H5S           -34.8784932689       13.3547329559       13.3784799208  MEMB      50              0.0000000000
      7316        78  DOPC      C26           -35.9269788893       15.2424721191       13.1434272823  MEMB      50              0.0000000000
      7317        78  DOPC      H6R           -36.1421980950       16.1557514723       13.7397348174  MEMB      50              0.0000000000
      7318        78  DOPC      H6S           -36.9049987180       14.7331847197       12.9875966619  MEMB      50              0.0000000000
      7319        78  DOPC      C27           -35.3854958886       15.6704873418       11.7638992712  MEMB      50              0.0000000000
      7320        78  DOPC      H7R           -34.4688767827       16.2818487823       11.9173918677  MEMB      50              0.0000000000
      7321        78  DOPC      H7S           -36.1351795822       16.3265859352       11.2697771090  MEMB      50              0.0000000000
      7322        78  DOPC      C28           -34.9941238144       14.5212049608       10.8128741250  MEMB      50              0.0000000000
      7323        78  DOPC      H8R           -34.0692684835       14.0721118963       11.2396940375  MEMB      50              0.0000000000
      7324        78  DOPC      H8S           -34.7056149973       14.9739836532        9.8378413182  MEMB      50              0.0000000000
      7325        78  DOPC      C29           -36.0665069735       13.4873803122       10.5798035644  MEMB      50              0.0000000000
      7326        78  DOPC      H9R           -37.0555497704       13.8981829662       10.3245712529  MEMB      50              0.0000000000
      7327        78  DOPC      C210          -35.9209590623       12.1507228720       10.6708681895  MEMB      50              0.0000000000
      7328        78  DOPC      H10R          -36.8014376239       11.5112344656       10.5012569803  MEMB      50              0.0000000000
      7329        78  DOPC      C211          -34.6565831195       11.4038257095       11.0222578635  MEMB      50              0.0000000000
      7330        78  DOPC      H11R          -34.7801772975       10.9420639180       12.0274034931  MEMB      50              0.0000000000
      7331        78  DOPC      H11S          -33.7694555524       12.0715912021       11.0991699871  MEMB      50              0.0000000000
      7332        78  DOPC      C212          -34.2816779467       10.2773186038       10.0327196419  MEMB      50              0.0000000000
      7333        78  DOPC      H12R          -35.1140619237        9.5452495614        9.9548755904  MEMB      50              0.0000000000
      7334        78  DOPC      H12S          -33.4154557856        9.7644086678       10.5021269415  MEMB      50              0.0000000000
      7335        78  DOPC      C213          -33.8614578932       10.7677768765        8.6310203865  MEMB      50              0.0000000000
      7336        78  DOPC      H13R          -32.9357453658       11.3734118127        8.7254499681  MEMB      50              0.0000000000
      7337        78  DOPC      H13S          -34.6675837780       11.4271866821        8.2421923457  MEMB      50              0.0000000000
      7338        78  DOPC      C214          -33.5947744485        9.6627754782        7.5883257531  MEMB      50              0.0000000000
      7339        78  DOPC      H14R          -34.3761171344        8.8774896059        7.6840893535  MEMB      50              0.0000000000
      7340        78  DOPC      H14S          -32.6127972612        9.1854233121        7.8041591238  MEMB      50              0.0000000000
      7341        78  DOPC      C215          -33.5908989611       10.1921302064        6.1358805218  MEMB      50              0.0000000000
      7342        78  DOPC      H15R          -32.7159621586       10.8666204818        6.0038289524  MEMB      50              0.0000000000
      7343        78  DOPC      H15S          -34.5086684296       10.7980938357        5.9693765130  MEMB      50              0.0000000000
      7344        78  DOPC      C216          -33.5417005022        9.0605225724        5.0956621015  MEMB      50              0.0000000000
      7345        78  DOPC      H16R          -34.4930779632        8.4837140964        5.1454819468  MEMB      50              0.0000000000
      7346        78  DOPC      H16S          -32.7125721567        8.3647999162        5.3558410101  MEMB      50              0.0000000000
      7347        78  DOPC      C217          -33.3340692299        9.4799414950        3.6345416802  MEMB      50              0.0000000000
      7348        78  DOPC      H17R          -32.3832393657       10.0534092685        3.5468546062  MEMB      50              0.0000000000
      7349        78  DOPC      H17S          -34.1518357499       10.1614842130        3.3073462666  MEMB      50              0.0000000000
      7350        78  DOPC      C218          -33.2912652733        8.2299314368        2.7388144568  MEMB      50              0.0000000000
      7351        78  DOPC      H18R          -32.3657799574        7.6530220387        2.9457570529  MEMB      50              0.0000000000
      7352        78  DOPC      H18S          -33.3147935143        8.4362886296        1.6493151521  MEMB      50              0.0000000000
      7353        78  DOPC      H18T          -34.1648396772        7.5859278747        2.9611975680  MEMB      50              0.0000000000
      7354        78  DOPC      C33           -29.6067588560       14.4717005182       11.4259605497  MEMB      50              0.0000000000
      7355        78  DOPC      H3X           -29.4079421175       13.5253169940       10.8760899902  MEMB      50              0.0000000000
      7356        78  DOPC      H3Y           -29.0483399124       15.2963744659       10.9355929883  MEMB      50              0.0000000000
      7357        78  DOPC      C34           -31.0958552803       14.8360963576       11.3682942406  MEMB      50              0.0000000000
      7358        78  DOPC      H4X           -31.2535986243       15.7354681038       12.0082263028  MEMB      50              0.0000000000
      7359        78  DOPC      H4Y           -31.6964300058       14.0009821521       11.7949481607  MEMB      50              0.0000000000
      7360        78  DOPC      C35           -31.6204683812       15.1551845189        9.9547705657  MEMB      50              0.0000000000
      7361        78  DOPC      H5X           -31.0375507651       15.9713656084        9.4927968445  MEMB      50              0.0000000000
      7362        78  DOPC      H5Y           -32.6553290972       15.5459308443       10.0482642309  MEMB      50              0.0000000000
      7363        78  DOPC      C36           -31.6323316607       13.9653666341        8.9839138064  MEMB      50              0.0000000000
      7364        78  DOPC      H6X           -30.6247868454       13.5067551517        8.9546629012  MEMB      50              0.0000000000
      7365        78  DOPC      H6Y           -32.3134685949       13.1912932547        9.3944365689  MEMB      50              0.0000000000
      7366        78  DOPC      C37           -32.0885188876       14.3928385255        7.5686393677  MEMB      50              0.0000000000
      7367        78  DOPC      H7X           -33.1379991455       14.0429714138        7.4255565119  MEMB      50              0.0000000000
      7368        78  DOPC      H7Y           -32.1170248166       15.5046679580        7.5249426486  MEMB      50              0.0000000000
      7369        78  DOPC      C38           -31.2249651645       13.8919985861        6.3781126530  MEMB      50              0.0000000000
      7370        78  DOPC      H8X           -31.6426405685       14.3293439243        5.4429424052  MEMB      50              0.0000000000
      7371        78  DOPC      H8Y           -31.3948016662       12.7952708603        6.3046704160  MEMB      50              0.0000000000
      7372        78  DOPC      C39           -29.7353586634       14.1487393161        6.4963431213  MEMB      50              0.0000000000
      7373        78  DOPC      H9X           -29.3404998219       14.0113101672        7.5122091996  MEMB      50              0.0000000000
      7374        78  DOPC      C310          -28.8378887713       14.5201879565        5.5601039362  MEMB      50              0.0000000000
      7375        78  DOPC      H10X          -27.7978257486       14.6637053814        5.8923663674  MEMB      50              0.0000000000
      7376        78  DOPC      C311          -29.0533329850       14.8024859784        4.0947387181  MEMB      50              0.0000000000
      7377        78  DOPC      H11X          -28.4612225270       15.7196191702        3.8557173396  MEMB      50              0.0000000000
      7378        78  DOPC      H11Y          -30.0958317442       15.1230255174        3.9314139347  MEMB      50              0.0000000000
      7379        78  DOPC      C312          -28.6137034348       13.7597322175        3.0126082824  MEMB      50              0.0000000000
      7380        78  DOPC      H12X          -27.5012241960       13.7258824719        3.0235893471  MEMB      50              0.0000000000
      7381        78  DOPC      H12Y          -28.9054811458       14.1754733957        2.0299006838  MEMB      50              0.0000000000
      7382        78  DOPC      C313          -29.1054025638       12.2876935619        3.0612909155  MEMB      50              0.0000000000
      7383        78  DOPC      H13X          -28.6822239815       11.8780172491        4.0069011052  MEMB      50              0.0000000000
      7384        78  DOPC      H13Y          -30.1972789699       12.1599451199        3.1571768802  MEMB      50              0.0000000000
      7385        78  DOPC      C314          -28.5571524169       11.4069217684        1.8947390743  MEMB      50              0.0000000000
      7386        78  DOPC      H14X          -27.6597441862       11.9141601516        1.4748812845  MEMB      50              0.0000000000
      7387        78  DOPC      H14Y          -28.2003796549       10.4593828921        2.3617006167  MEMB      50              0.0000000000
      7388        78  DOPC      C315          -29.4501979696       10.9486220734        0.6928960244  MEMB      50              0.0000000000
      7389        78  DOPC      H15X          -28.7942585213       10.2143827588        0.1674255175  MEMB      50              0.0000000000
      7390        78  DOPC      H15Y          -29.5980416024       11.7310285046       -0.0674344543  MEMB      50              0.0000000000
      7391        78  DOPC      C316          -30.7521134742       10.1692844339        1.0235233707  MEMB      50              0.0000000000
      7392        78  DOPC      H16X          -30.6852906118        9.1274000501        0.6496803491  MEMB      50              0.0000000000
      7393        78  DOPC      H16Y          -30.7731430140       10.1330348471        2.1307363772  MEMB      50              0.0000000000
      7394        78  DOPC      C317          -32.1260241416       10.7606097367        0.6256583161  MEMB      50              0.0000000000
      7395        78  DOPC      H17X          -32.9216649600       10.3219552284        1.2540119712  MEMB      50              0.0000000000
      7396        78  DOPC      H17Y          -32.1084536701       11.8095640760        0.9070245364  MEMB      50              0.0000000000
      7397        78  DOPC      C318          -32.6492395633       10.7216591955       -0.8064661928  MEMB      50              0.0000000000
      7398        78  DOPC      H18X          -33.2015198398        9.7847173015       -1.0223723743  MEMB      50              0.0000000000
      7399        78  DOPC      H18Y          -33.3751867686       11.5609791434       -0.9199677310  MEMB      50              0.0000000000
      7400        78  DOPC      H18Z          -31.8300974774       10.8545414806       -1.5356105028  MEMB      50              0.0000000000
      7401        79  DOPC      N              14.0988033982      -31.1685531550       20.0993923257  MEMB      51              0.0000000000
      7402        79  DOPC      C12            14.6895333463      -30.6416266903       18.8003012798  MEMB      51              0.0000000000
      7403        79  DOPC      H12A           13.9895124834      -29.9841986519       18.3043869735  MEMB      51              0.0000000000
      7404        79  DOPC      H12B           14.8701947741      -31.4897651786       18.1398248548  MEMB      51              0.0000000000
      7405        79  DOPC      C13            14.9877560992      -32.2617962757       20.6196874562  MEMB      51              0.0000000000
      7406        79  DOPC      H13A           16.0238883389      -31.9123395050       20.5710001896  MEMB      51              0.0000000000
      7407        79  DOPC      H13B           14.7671065239      -32.5463281486       21.6409529787  MEMB      51              0.0000000000
      7408        79  DOPC      H13C           14.9261410746      -33.1296718730       19.9692398685  MEMB      51              0.0000000000
      7409        79  DOPC      C14            12.7507840351      -31.7755150928       19.9273262201  MEMB      51              0.0000000000
      7410        79  DOPC      H14A           11.9939578040      -31.0229457749       19.7569809290  MEMB      51              0.0000000000
      7411        79  DOPC      H14B           12.7377874816      -32.5119792022       19.1333705881  MEMB      51              0.0000000000
      7412        79  DOPC      H14C           12.4722841769      -32.2820963244       20.8487705122  MEMB      51              0.0000000000
      7413        79  DOPC      C15            13.9882214823      -30.0610481440       21.0864099197  MEMB      51              0.0000000000
      7414        79  DOPC      H15A           13.4557862207      -29.2269288512       20.6579028593  MEMB      51              0.0000000000
      7415        79  DOPC      H15B           14.9756430281      -29.7054793360       21.4026975685  MEMB      51              0.0000000000
      7416        79  DOPC      H15C           13.4897710601      -30.4150976990       21.9875156687  MEMB      51              0.0000000000
      7417        79  DOPC      C11            16.0638348156      -29.9176244553       18.8744034284  MEMB      51              0.0000000000
      7418        79  DOPC      H11A           16.3251113945      -29.5562448691       17.8467757586  MEMB      51              0.0000000000
      7419        79  DOPC      H11B           15.9658262573      -29.0023475876       19.4963192064  MEMB      51              0.0000000000
      7420        79  DOPC      P              17.7806713469      -31.7973119580       18.4189937045  MEMB      51              0.0000000000
      7421        79  DOPC      O13            18.6706928012      -32.6416793863       19.2516054521  MEMB      51              0.0000000000
      7422        79  DOPC      O14            18.4241913035      -31.0214558960       17.3543421826  MEMB      51              0.0000000000
      7423        79  DOPC      O12            17.0967637617      -30.7552886828       19.4154482505  MEMB      51              0.0000000000
      7424        79  DOPC      O11            16.4666161853      -32.5777233494       17.9541570296  MEMB      51              0.0000000000
      7425        79  DOPC      C1             16.3523112605      -33.5532584373       16.9352724873  MEMB      51              0.0000000000
      7426        79  DOPC      HA             15.8836069345      -34.4725109848       17.3457647061  MEMB      51              0.0000000000
      7427        79  DOPC      HB             17.3638639096      -33.8478179014       16.5873249427  MEMB      51              0.0000000000
      7428        79  DOPC      C2             15.5689498680      -33.0538139701       15.6716894709  MEMB      51              0.0000000000
      7429        79  DOPC      HS             15.5594479126      -33.8992154530       14.9382414025  MEMB      51              0.0000000000
      7430        79  DOPC      O21            16.2414797961      -31.9072812277       15.1367873424  MEMB      51              0.0000000000
      7431        79  DOPC      C21            17.4079188502      -32.2297772719       14.6011530642  MEMB      51              0.0000000000
      7432        79  DOPC      O22            17.7137797111      -33.3589799374       14.2485034783  MEMB      51              0.0000000000
      7433        79  DOPC      C22            18.2147913724      -30.9526646416       14.3892635760  MEMB      51              0.0000000000
      7434        79  DOPC      H2R            18.9190317250      -30.8355952998       15.2294602516  MEMB      51              0.0000000000
      7435        79  DOPC      H2S            17.5083620823      -30.0963045874       14.4057826652  MEMB      51              0.0000000000
      7436        79  DOPC      C3             14.0730972669      -32.6670945631       15.8178745249  MEMB      51              0.0000000000
      7437        79  DOPC      HX             13.9791724046      -31.8697080591       16.5835558383  MEMB      51              0.0000000000
      7438        79  DOPC      HY             13.4909357670      -33.5424635994       16.1861102954  MEMB      51              0.0000000000
      7439        79  DOPC      O31            13.5931958923      -32.2705126380       14.5022080741  MEMB      51              0.0000000000
      7440        79  DOPC      C31            13.4134088581      -30.9446040409       14.2995169801  MEMB      51              0.0000000000
      7441        79  DOPC      O32            13.2297644245      -30.1385610982       15.1935565508  MEMB      51              0.0000000000
      7442        79  DOPC      C32            13.3510206473      -30.6125751575       12.7585224100  MEMB      51              0.0000000000
      7443        79  DOPC      H2X            13.7705222243      -31.4879515712       12.2260040960  MEMB      51              0.0000000000
      7444        79  DOPC      H2Y            12.2705552286      -30.5625068446       12.5167117700  MEMB      51              0.0000000000
      7445        79  DOPC      C23            19.0700790422      -30.9503568135       13.1137549611  MEMB      51              0.0000000000
      7446        79  DOPC      H3R            20.0866702836      -31.3223669317       13.3006041134  MEMB      51              0.0000000000
      7447        79  DOPC      H3S            19.2745516893      -29.9083853973       12.8780477450  MEMB      51              0.0000000000
      7448        79  DOPC      C24            18.4714532428      -31.6856591872       11.9110350621  MEMB      51              0.0000000000
      7449        79  DOPC      H4R            18.6030431406      -32.7795982918       12.0159953997  MEMB      51              0.0000000000
      7450        79  DOPC      H4S            19.0293814223      -31.3537505780       11.0059521910  MEMB      51              0.0000000000
      7451        79  DOPC      C25            16.9801635880      -31.4297822949       11.7411619308  MEMB      51              0.0000000000
      7452        79  DOPC      H5R            16.8715916970      -30.3454101284       11.9664848024  MEMB      51              0.0000000000
      7453        79  DOPC      H5S            16.3243589393      -31.9790662588       12.4424350287  MEMB      51              0.0000000000
      7454        79  DOPC      C26            16.4893801363      -31.7071246171       10.3372631197  MEMB      51              0.0000000000
      7455        79  DOPC      H6R            17.3064647805      -31.5427687073        9.6013805763  MEMB      51              0.0000000000
      7456        79  DOPC      H6S            15.7071585880      -30.9269089404       10.1864056469  MEMB      51              0.0000000000
      7457        79  DOPC      C27            15.8583221464      -33.0591046798       10.0492528877  MEMB      51              0.0000000000
      7458        79  DOPC      H7R            15.2578766147      -33.3777707188       10.9268095483  MEMB      51              0.0000000000
      7459        79  DOPC      H7S            16.6581155074      -33.8165374152        9.8937783606  MEMB      51              0.0000000000
      7460        79  DOPC      C28            14.9920713705      -32.9072682473        8.7842908270  MEMB      51              0.0000000000
      7461        79  DOPC      H8R            14.7279698037      -33.9001384903        8.3559051241  MEMB      51              0.0000000000
      7462        79  DOPC      H8S            15.6013609259      -32.3409210416        8.0604087705  MEMB      51              0.0000000000
      7463        79  DOPC      C29            13.7777401716      -32.0946459105        9.1229944034  MEMB      51              0.0000000000
      7464        79  DOPC      H9R            13.5206077858      -32.1603947525       10.1870943022  MEMB      51              0.0000000000
      7465        79  DOPC      C210           12.9971040793      -31.3199337025        8.3609952804  MEMB      51              0.0000000000
      7466        79  DOPC      H10R           12.1483533156      -30.8237414239        8.8521695105  MEMB      51              0.0000000000
      7467        79  DOPC      C211           13.0978950447      -31.0186923483        6.8958070711  MEMB      51              0.0000000000
      7468        79  DOPC      H11R           13.0212053327      -31.9318514849        6.2684604676  MEMB      51              0.0000000000
      7469        79  DOPC      H11S           14.0727282696      -30.5400771386        6.6841383262  MEMB      51              0.0000000000
      7470        79  DOPC      C212           11.9477816996      -30.0503268355        6.5585427827  MEMB      51              0.0000000000
      7471        79  DOPC      H12R           12.1134823488      -29.1299062721        7.1697217257  MEMB      51              0.0000000000
      7472        79  DOPC      H12S           10.9653494873      -30.4806354001        6.8508003226  MEMB      51              0.0000000000
      7473        79  DOPC      C213           11.8880977062      -29.6337619211        5.0834451910  MEMB      51              0.0000000000
      7474        79  DOPC      H13R           11.0228730150      -28.9664268134        4.8894174391  MEMB      51              0.0000000000
      7475        79  DOPC      H13S           11.7558361104      -30.5246084323        4.4326970866  MEMB      51              0.0000000000
      7476        79  DOPC      C214           13.1861123779      -28.9325962300        4.7229771341  MEMB      51              0.0000000000
      7477        79  DOPC      H14R           13.9166143071      -29.7624475844        4.6112099521  MEMB      51              0.0000000000
      7478        79  DOPC      H14S           13.5527686834      -28.3067859107        5.5685213646  MEMB      51              0.0000000000
      7479        79  DOPC      C215           13.2005281551      -28.1227413941        3.4213033020  MEMB      51              0.0000000000
      7480        79  DOPC      H15R           12.6522534179      -27.1755226990        3.5936412861  MEMB      51              0.0000000000
      7481        79  DOPC      H15S           12.6247766302      -28.6405409542        2.6345376193  MEMB      51              0.0000000000
      7482        79  DOPC      C216           14.6976748126      -27.9964697386        3.0362367137  MEMB      51              0.0000000000
      7483        79  DOPC      H16R           15.0385776082      -29.0468824475        3.1479666699  MEMB      51              0.0000000000
      7484        79  DOPC      H16S           15.2396908933      -27.3569998874        3.7524456539  MEMB      51              0.0000000000
      7485        79  DOPC      C217           15.1725660336      -27.6793869550        1.6150928399  MEMB      51              0.0000000000
      7486        79  DOPC      H17R           14.2137378437      -27.7568523000        1.0862120984  MEMB      51              0.0000000000
      7487        79  DOPC      H17S           15.8979458618      -28.4535869550        1.2746665770  MEMB      51              0.0000000000
      7488        79  DOPC      C218           15.7750840731      -26.2995848087        1.3075605113  MEMB      51              0.0000000000
      7489        79  DOPC      H18R           15.8998833045      -25.7466793017        2.2632736252  MEMB      51              0.0000000000
      7490        79  DOPC      H18S           15.0121945851      -25.7233246061        0.7398870247  MEMB      51              0.0000000000
      7491        79  DOPC      H18T           16.6927922725      -26.2958235146        0.6888710915  MEMB      51              0.0000000000
      7492        79  DOPC      C33            14.0437452346      -29.2817626460       12.2206263971  MEMB      51              0.0000000000
      7493        79  DOPC      H3X            15.0849272996      -29.5009257857       11.9497872694  MEMB      51              0.0000000000
      7494        79  DOPC      H3Y            14.0701517494      -28.5610456158       13.0672497098  MEMB      51              0.0000000000
      7495        79  DOPC      C34            13.3291472262      -28.5219726937       11.0462241423  MEMB      51              0.0000000000
      7496        79  DOPC      H4X            12.6726483139      -27.7931212955       11.5534435357  MEMB      51              0.0000000000
      7497        79  DOPC      H4Y            12.6753467352      -29.2716784362       10.5434865384  MEMB      51              0.0000000000
      7498        79  DOPC      C35            14.0398291193      -27.7421818752        9.8608394345  MEMB      51              0.0000000000
      7499        79  DOPC      H5X            13.2195774780      -27.5090661202        9.1440325909  MEMB      51              0.0000000000
      7500        79  DOPC      H5Y            14.6716925226      -28.4340789459        9.2863044352  MEMB      51              0.0000000000
      7501        79  DOPC      C36            14.7531612089      -26.3549351011       10.0667903851  MEMB      51              0.0000000000
      7502        79  DOPC      H6X            14.0845271951      -25.7109658779       10.6718142163  MEMB      51              0.0000000000
      7503        79  DOPC      H6Y            15.6742911412      -26.4688243177       10.6471659410  MEMB      51              0.0000000000
      7504        79  DOPC      C37            15.0965290744      -25.5553443866        8.7607188561  MEMB      51              0.0000000000
      7505        79  DOPC      H7X            14.3289418506      -25.9165268728        8.0261687209  MEMB      51              0.0000000000
      7506        79  DOPC      H7Y            14.9292311392      -24.4715355309        8.8538981903  MEMB      51              0.0000000000
      7507        79  DOPC      C38            16.4622773616      -25.8636820331        8.0146629272  MEMB      51              0.0000000000
      7508        79  DOPC      H8X            16.1809728804      -25.7309298397        6.9639670166  MEMB      51              0.0000000000
      7509        79  DOPC      H8Y            16.3647040594      -26.8853211399        8.3719912542  MEMB      51              0.0000000000
      7510        79  DOPC      C39            17.9899582832      -25.7653432836        8.1188440743  MEMB      51              0.0000000000
      7511        79  DOPC      H9X            18.2711602646      -24.8331668566        8.5914589527  MEMB      51              0.0000000000
      7512        79  DOPC      C310           19.0585022542      -26.5243888266        7.6684205165  MEMB      51              0.0000000000
      7513        79  DOPC      H10X           20.0154140673      -26.1358284878        8.0316844976  MEMB      51              0.0000000000
      7514        79  DOPC      C311           19.2650345247      -27.8216573032        6.8384669792  MEMB      51              0.0000000000
      7515        79  DOPC      H11X           19.8436448291      -27.3476214816        6.0116276863  MEMB      51              0.0000000000
      7516        79  DOPC      H11Y           18.3633553606      -28.0445036856        6.3274349009  MEMB      51              0.0000000000
      7517        79  DOPC      C312           20.0571659659      -29.2437117710        6.8491654836  MEMB      51              0.0000000000
      7518        79  DOPC      H12X           20.9583091570      -29.0776736528        7.4772308294  MEMB      51              0.0000000000
      7519        79  DOPC      H12Y           20.4208641516      -29.3035076763        5.7973752478  MEMB      51              0.0000000000
      7520        79  DOPC      C313           19.6239312281      -30.7922972816        7.0926973275  MEMB      51              0.0000000000
      7521        79  DOPC      H13X           20.4491308310      -31.3757968331        6.6309379626  MEMB      51              0.0000000000
      7522        79  DOPC      H13Y           19.7605009422      -30.9051771500        8.1966974862  MEMB      51              0.0000000000
      7523        79  DOPC      C314           18.3059885003      -31.6860193716        6.8476971175  MEMB      51              0.0000000000
      7524        79  DOPC      H14X           18.5450492817      -32.6230303940        7.4148293245  MEMB      51              0.0000000000
      7525        79  DOPC      H14Y           17.4444068078      -31.3113252304        7.3909536457  MEMB      51              0.0000000000
      7526        79  DOPC      C315           17.6596504830      -32.2461541500        5.5284512874  MEMB      51              0.0000000000
      7527        79  DOPC      H15X           18.2631282515      -32.9844669416        5.0189414005  MEMB      51              0.0000000000
      7528        79  DOPC      H15Y           17.5205927603      -31.4914975490        4.7579685050  MEMB      51              0.0000000000
      7529        79  DOPC      C316           16.3083902361      -32.9891131607        5.7977230711  MEMB      51              0.0000000000
      7530        79  DOPC      H16X           16.4486062237      -33.6613340300        6.6738589055  MEMB      51              0.0000000000
      7531        79  DOPC      H16Y           15.5302909527      -32.2369527925        6.0488687876  MEMB      51              0.0000000000
      7532        79  DOPC      C317           15.7244155988      -33.8659879765        4.6746792660  MEMB      51              0.0000000000
      7533        79  DOPC      H17X           15.5373795359      -33.2067115525        3.8027700928  MEMB      51              0.0000000000
      7534        79  DOPC      H17Y           16.4770740197      -34.6254303164        4.3702682388  MEMB      51              0.0000000000
      7535        79  DOPC      C318           14.4136910219      -34.5985135245        5.0360270506  MEMB      51              0.0000000000
      7536        79  DOPC      H18X           13.7178511701      -33.9523311636        5.6113965271  MEMB      51              0.0000000000
      7537        79  DOPC      H18Y           13.8780345173      -34.9294064184        4.1180327271  MEMB      51              0.0000000000
      7538        79  DOPC      H18Z           14.6146056612      -35.5046207936        5.6460672177  MEMB      51              0.0000000000
      7539        80  DOPC      N              32.1407905179       -6.6137858366       17.9792503496  MEMB      52              0.0000000000
      7540        80  DOPC      C12            33.1388864242       -7.6646313520       18.4688178561  MEMB      52              0.0000000000
      7541        80  DOPC      H12A           33.4253785755       -8.2904493713       17.6314074789  MEMB      52              0.0000000000
      7542        80  DOPC      H12B           32.6221350734       -8.3225783524       19.1466074316  MEMB      52              0.0000000000
      7543        80  DOPC      C13            32.7295895469       -6.0098014292       16.7606730329  MEMB      52              0.0000000000
      7544        80  DOPC      H13A           33.7644077117       -5.7227595157       16.9686693966  MEMB      52              0.0000000000
      7545        80  DOPC      H13B           32.7370973490       -6.7027059630       15.9270394695  MEMB      52              0.0000000000
      7546        80  DOPC      H13C           32.2053845208       -5.1175571107       16.4622951148  MEMB      52              0.0000000000
      7547        80  DOPC      C14            31.9709694570       -5.5618280621       19.0149702839  MEMB      52              0.0000000000
      7548        80  DOPC      H14A           31.7876871467       -6.0114773061       19.9861700348  MEMB      52              0.0000000000
      7549        80  DOPC      H14B           32.9230120292       -5.0333546040       19.1149428231  MEMB      52              0.0000000000
      7550        80  DOPC      H14C           31.2099706877       -4.8303565534       18.8169373921  MEMB      52              0.0000000000
      7551        80  DOPC      C15            30.8073931715       -7.2189310837       17.6895393332  MEMB      52              0.0000000000
      7552        80  DOPC      H15A           30.3178383153       -7.5704747717       18.5997952820  MEMB      52              0.0000000000
      7553        80  DOPC      H15B           30.9108484530       -8.0525070370       16.9986516439  MEMB      52              0.0000000000
      7554        80  DOPC      H15C           30.1568429647       -6.4861838732       17.2246612751  MEMB      52              0.0000000000
      7555        80  DOPC      C11            34.4848515401       -7.2485843636       19.1542616326  MEMB      52              0.0000000000
      7556        80  DOPC      H11A           34.9788285641       -8.2080462566       19.4404133905  MEMB      52              0.0000000000
      7557        80  DOPC      H11B           35.1529909036       -6.7946939844       18.3860545275  MEMB      52              0.0000000000
      7558        80  DOPC      P              34.9499202213       -4.9693819582       20.4329994205  MEMB      52              0.0000000000
      7559        80  DOPC      O13            36.1228303788       -4.9469370123       21.3425942654  MEMB      52              0.0000000000
      7560        80  DOPC      O14            33.8284513215       -4.1009179734       20.8756647672  MEMB      52              0.0000000000
      7561        80  DOPC      O12            34.3596315287       -6.4526254899       20.3380457211  MEMB      52              0.0000000000
      7562        80  DOPC      O11            35.4201840547       -4.5681065929       18.9302836968  MEMB      52              0.0000000000
      7563        80  DOPC      C1             36.8047090996       -4.1070151555       18.8308027802  MEMB      52              0.0000000000
      7564        80  DOPC      HA             37.4972840427       -4.7363184822       19.4486025009  MEMB      52              0.0000000000
      7565        80  DOPC      HB             36.8608115198       -3.0578231133       19.2043162112  MEMB      52              0.0000000000
      7566        80  DOPC      C2             37.5874695178       -4.0620738296       17.4430825467  MEMB      52              0.0000000000
      7567        80  DOPC      HS             38.5078968652       -3.4652933539       17.6433865973  MEMB      52              0.0000000000
      7568        80  DOPC      O21            36.9456657219       -3.5036567101       16.2979321022  MEMB      52              0.0000000000
      7569        80  DOPC      C21            35.8145891726       -2.9230886923       16.4117751396  MEMB      52              0.0000000000
      7570        80  DOPC      O22            35.5258501160       -1.9614136341       17.1119460045  MEMB      52              0.0000000000
      7571        80  DOPC      C22            34.9561271766       -3.5675491950       15.3239077219  MEMB      52              0.0000000000
      7572        80  DOPC      H2R            34.9703713458       -4.6630550460       15.4944127806  MEMB      52              0.0000000000
      7573        80  DOPC      H2S            35.4457846897       -3.3652106531       14.3475162674  MEMB      52              0.0000000000
      7574        80  DOPC      C3             38.1059465473       -5.4303472573       16.9144139095  MEMB      52              0.0000000000
      7575        80  DOPC      HX             38.7002537294       -5.9050959448       17.7271186938  MEMB      52              0.0000000000
      7576        80  DOPC      HY             38.8052616452       -5.1517955124       16.0917028968  MEMB      52              0.0000000000
      7577        80  DOPC      O31            37.0968411238       -6.3220466385       16.3736190878  MEMB      52              0.0000000000
      7578        80  DOPC      C31            37.6639392548       -7.4089028426       15.8480651090  MEMB      52              0.0000000000
      7579        80  DOPC      O32            38.8530722082       -7.6207528742       15.7503384535  MEMB      52              0.0000000000
      7580        80  DOPC      C32            36.6235358362       -8.3567144739       15.2479170683  MEMB      52              0.0000000000
      7581        80  DOPC      H2X            37.0344809239       -8.6526373554       14.2616669475  MEMB      52              0.0000000000
      7582        80  DOPC      H2Y            36.5862475572       -9.2474784499       15.9071482466  MEMB      52              0.0000000000
      7583        80  DOPC      C23            33.5284969514       -3.0234758035       15.3069303087  MEMB      52              0.0000000000
      7584        80  DOPC      H3R            33.6073538257       -1.9560320746       15.0186472573  MEMB      52              0.0000000000
      7585        80  DOPC      H3S            33.0957994667       -3.0694124972       16.3329303293  MEMB      52              0.0000000000
      7586        80  DOPC      C24            32.6100699665       -3.7743084928       14.3367279764  MEMB      52              0.0000000000
      7587        80  DOPC      H4R            31.5679302915       -3.4335297237       14.4930979222  MEMB      52              0.0000000000
      7588        80  DOPC      H4S            32.6389201270       -4.8621789412       14.5398373644  MEMB      52              0.0000000000
      7589        80  DOPC      C25            32.9617965927       -3.6368653190       12.8549286656  MEMB      52              0.0000000000
      7590        80  DOPC      H5R            34.0364056895       -3.8603873260       12.6768156975  MEMB      52              0.0000000000
      7591        80  DOPC      H5S            32.7809474762       -2.5852222233       12.5412013252  MEMB      52              0.0000000000
      7592        80  DOPC      C26            32.1212257991       -4.6035128093       12.0104682276  MEMB      52              0.0000000000
      7593        80  DOPC      H6R            31.0900256030       -4.6361508323       12.4259361265  MEMB      52              0.0000000000
      7594        80  DOPC      H6S            32.5186698151       -5.6374164653       12.0850076150  MEMB      52              0.0000000000
      7595        80  DOPC      C27            32.0328543799       -4.1608959027       10.5476223205  MEMB      52              0.0000000000
      7596        80  DOPC      H7R            32.4178219179       -3.1187451045       10.4684236412  MEMB      52              0.0000000000
      7597        80  DOPC      H7S            30.9624823891       -4.1430815781       10.2402918912  MEMB      52              0.0000000000
      7598        80  DOPC      C28            32.8223843300       -5.0212076530        9.5630843630  MEMB      52              0.0000000000
      7599        80  DOPC      H8R            33.7517720210       -5.3625489221       10.0574217198  MEMB      52              0.0000000000
      7600        80  DOPC      H8S            33.1461683806       -4.3602843579        8.7296171273  MEMB      52              0.0000000000
      7601        80  DOPC      C29            31.9750469719       -6.1595268985        9.0546131259  MEMB      52              0.0000000000
      7602        80  DOPC      H9R            31.9720120798       -7.0728001751        9.6667517937  MEMB      52              0.0000000000
      7603        80  DOPC      C210           31.2207043447       -6.1142833502        7.9440932238  MEMB      52              0.0000000000
      7604        80  DOPC      H10R           30.6656563707       -7.0024906762        7.6453436820  MEMB      52              0.0000000000
      7605        80  DOPC      C211           31.0668806899       -4.9548968034        6.9995100706  MEMB      52              0.0000000000
      7606        80  DOPC      H11R           31.3350750923       -3.9873998666        7.4791672422  MEMB      52              0.0000000000
      7607        80  DOPC      H11S           30.0157615983       -4.8781867968        6.6455921589  MEMB      52              0.0000000000
      7608        80  DOPC      C212           31.9232262608       -5.1374495599        5.7496250351  MEMB      52              0.0000000000
      7609        80  DOPC      H12R           31.7655343571       -4.2424267109        5.1022120173  MEMB      52              0.0000000000
      7610        80  DOPC      H12S           31.5832202742       -6.0221569310        5.1679237659  MEMB      52              0.0000000000
      7611        80  DOPC      C213           33.4183246209       -5.2632152800        6.0468025446  MEMB      52              0.0000000000
      7612        80  DOPC      H13R           33.6441933125       -6.2026821447        6.6010511328  MEMB      52              0.0000000000
      7613        80  DOPC      H13S           33.7357604307       -4.4052775122        6.6799079696  MEMB      52              0.0000000000
      7614        80  DOPC      C214           34.1790722515       -5.2346152882        4.7332439683  MEMB      52              0.0000000000
      7615        80  DOPC      H14R           33.7101014729       -4.4560225478        4.0907353021  MEMB      52              0.0000000000
      7616        80  DOPC      H14S           34.0463923133       -6.2119444174        4.2157179816  MEMB      52              0.0000000000
      7617        80  DOPC      C215           35.6645350623       -4.9018536429        4.8551485712  MEMB      52              0.0000000000
      7618        80  DOPC      H15R           36.1725858060       -5.7118306313        5.4153618048  MEMB      52              0.0000000000
      7619        80  DOPC      H15S           35.8308453696       -3.9594156110        5.4205242677  MEMB      52              0.0000000000
      7620        80  DOPC      C216           36.2404587250       -4.7813444636        3.4449067291  MEMB      52              0.0000000000
      7621        80  DOPC      H16R           35.8084747537       -5.6091706987        2.8426593104  MEMB      52              0.0000000000
      7622        80  DOPC      H16S           37.3412287698       -4.9171262791        3.4584539195  MEMB      52              0.0000000000
      7623        80  DOPC      C217           35.8713926294       -3.4745707825        2.7395526706  MEMB      52              0.0000000000
      7624        80  DOPC      H17R           36.7162148700       -2.7711739385        2.8798143214  MEMB      52              0.0000000000
      7625        80  DOPC      H17S           35.0020028708       -3.0061997594        3.2465789740  MEMB      52              0.0000000000
      7626        80  DOPC      C218           35.5531709413       -3.6404370388        1.2468582927  MEMB      52              0.0000000000
      7627        80  DOPC      H18R           35.7559919119       -2.6898997880        0.7101834874  MEMB      52              0.0000000000
      7628        80  DOPC      H18S           34.4852028179       -3.9106088132        1.0996863633  MEMB      52              0.0000000000
      7629        80  DOPC      H18T           36.1847342232       -4.4283487694        0.7816531679  MEMB      52              0.0000000000
      7630        80  DOPC      C33            35.2088713816       -7.7608722193       15.1121607535  MEMB      52              0.0000000000
      7631        80  DOPC      H3X            35.2641759703       -6.7738987398       14.6008299257  MEMB      52              0.0000000000
      7632        80  DOPC      H3Y            34.8182507406       -7.5787861089       16.1376220621  MEMB      52              0.0000000000
      7633        80  DOPC      C34            34.2483620905       -8.6831361019       14.3469127718  MEMB      52              0.0000000000
      7634        80  DOPC      H4X            33.2437143727       -8.2056938690       14.2978681273  MEMB      52              0.0000000000
      7635        80  DOPC      H4Y            34.1450068494       -9.6501630532       14.8902312718  MEMB      52              0.0000000000
      7636        80  DOPC      C35            34.6971327212       -8.9746420529       12.9082513440  MEMB      52              0.0000000000
      7637        80  DOPC      H5X            33.9178911100       -9.6092383644       12.4239404525  MEMB      52              0.0000000000
      7638        80  DOPC      H5Y            35.6406757499       -9.5645847202       12.8970145626  MEMB      52              0.0000000000
      7639        80  DOPC      C36            34.8877166909       -7.6951766231       12.0799786105  MEMB      52              0.0000000000
      7640        80  DOPC      H6X            34.1303992461       -6.9491989649       12.4079786040  MEMB      52              0.0000000000
      7641        80  DOPC      H6Y            35.8902427742       -7.2569824720       12.2793391086  MEMB      52              0.0000000000
      7642        80  DOPC      C37            34.6936229600       -7.9244407206       10.5766338047  MEMB      52              0.0000000000
      7643        80  DOPC      H7X            33.6311732133       -8.2193706809       10.4188056422  MEMB      52              0.0000000000
      7644        80  DOPC      H7Y            34.8640126321       -6.9808644176       10.0169276057  MEMB      52              0.0000000000
      7645        80  DOPC      C38            35.5785076825       -9.0217444461        9.9728993943  MEMB      52              0.0000000000
      7646        80  DOPC      H8X            35.0800738742       -9.3390717902        9.0318134048  MEMB      52              0.0000000000
      7647        80  DOPC      H8Y            35.5794226891       -9.9152603886       10.6309486843  MEMB      52              0.0000000000
      7648        80  DOPC      C39            36.9902870372       -8.5531896299        9.7345807568  MEMB      52              0.0000000000
      7649        80  DOPC      H9X            37.4867559044       -8.0723079711       10.5928120277  MEMB      52              0.0000000000
      7650        80  DOPC      C310           37.6635583393       -8.6636960213        8.5791427836  MEMB      52              0.0000000000
      7651        80  DOPC      H10X           38.7065492277       -8.3125063875        8.5475684995  MEMB      52              0.0000000000
      7652        80  DOPC      C311           37.1602637722       -9.2692155789        7.2886298246  MEMB      52              0.0000000000
      7653        80  DOPC      H11X           36.1185332254       -9.6507831927        7.3428608355  MEMB      52              0.0000000000
      7654        80  DOPC      H11Y           37.7862315491      -10.1450713250        7.0090873492  MEMB      52              0.0000000000
      7655        80  DOPC      C312           37.2513433948       -8.2238943834        6.1619970958  MEMB      52              0.0000000000
      7656        80  DOPC      H12X           36.8208666791       -7.2622941346        6.5068471360  MEMB      52              0.0000000000
      7657        80  DOPC      H12Y           36.6453429458       -8.5858808313        5.3015000465  MEMB      52              0.0000000000
      7658        80  DOPC      C313           38.7152428739       -8.0553706289        5.7337345396  MEMB      52              0.0000000000
      7659        80  DOPC      H13X           39.3091767767       -7.5951528872        6.5479824187  MEMB      52              0.0000000000
      7660        80  DOPC      H13Y           39.0628117069       -9.0897548798        5.6202407037  MEMB      52              0.0000000000
      7661        80  DOPC      C314           39.0257459718       -7.3655816270        4.4022932647  MEMB      52              0.0000000000
      7662        80  DOPC      H14X           38.5664153685       -6.3572862812        4.3781680376  MEMB      52              0.0000000000
      7663        80  DOPC      H14Y           40.1317763896       -7.2268421317        4.3562950181  MEMB      52              0.0000000000
      7664        80  DOPC      C315           38.6230612539       -8.2059820982        3.1803454791  MEMB      52              0.0000000000
      7665        80  DOPC      H15X           38.5879292816       -9.2815804152        3.4619094144  MEMB      52              0.0000000000
      7666        80  DOPC      H15Y           39.3825457772       -8.0906281663        2.3740180506  MEMB      52              0.0000000000
      7667        80  DOPC      C316           37.2681929928       -7.7756513778        2.6345335703  MEMB      52              0.0000000000
      7668        80  DOPC      H16X           36.6981529268       -7.3159518712        3.4713923360  MEMB      52              0.0000000000
      7669        80  DOPC      H16Y           37.4113043506       -7.0031863687        1.8430518063  MEMB      52              0.0000000000
      7670        80  DOPC      C317           36.3861510661       -8.9017496867        2.1138970122  MEMB      52              0.0000000000
      7671        80  DOPC      H17X           36.8746018158       -9.3865015343        1.2394748619  MEMB      52              0.0000000000
      7672        80  DOPC      H17Y           36.2411343851       -9.6763274220        2.9023895248  MEMB      52              0.0000000000
      7673        80  DOPC      C318           35.0326466629       -8.3500397576        1.6944475783  MEMB      52              0.0000000000
      7674        80  DOPC      H18X           35.0961902295       -7.2615013109        1.4702147179  MEMB      52              0.0000000000
      7675        80  DOPC      H18Y           34.6956443368       -8.8689817319        0.7740127678  MEMB      52              0.0000000000
      7676        80  DOPC      H18Z           34.2655223308       -8.4956222756        2.4875726336  MEMB      52              0.0000000000
      7677        81  DOPC      N              36.2438071772        1.5754319222       17.9089974755  MEMB      53              0.0000000000
      7678        81  DOPC      C12            34.8761743218        1.4112175675       18.5568506547  MEMB      53              0.0000000000
      7679        81  DOPC      H12A           34.5997556021        0.3692150036       18.5896569111  MEMB      53              0.0000000000
      7680        81  DOPC      H12B           34.1424839114        1.9341087079       17.9417806669  MEMB      53              0.0000000000
      7681        81  DOPC      C13            36.2846776279        0.8869078070       16.5881736741  MEMB      53              0.0000000000
      7682        81  DOPC      H13A           36.1790489828       -0.1930068964       16.7176925737  MEMB      53              0.0000000000
      7683        81  DOPC      H13B           35.4762338908        1.2225724139       15.9455985650  MEMB      53              0.0000000000
      7684        81  DOPC      H13C           37.2194598222        1.0758198352       16.0833877856  MEMB      53              0.0000000000
      7685        81  DOPC      C14            37.3070798512        1.0358701252       18.8077361321  MEMB      53              0.0000000000
      7686        81  DOPC      H14A           37.1477276641       -0.0115147328       19.0284823931  MEMB      53              0.0000000000
      7687        81  DOPC      H14B           38.2989798798        1.1673557268       18.3890508384  MEMB      53              0.0000000000
      7688        81  DOPC      H14C           37.3214128317        1.5957035359       19.7451722609  MEMB      53              0.0000000000
      7689        81  DOPC      C15            36.4931025879        3.0445539050       17.7399421668  MEMB      53              0.0000000000
      7690        81  DOPC      H15A           36.1817147723        3.5699349731       18.6488151820  MEMB      53              0.0000000000
      7691        81  DOPC      H15B           35.8970152338        3.4673407688       16.9428306848  MEMB      53              0.0000000000
      7692        81  DOPC      H15C           37.5317684245        3.2822724719       17.5611207075  MEMB      53              0.0000000000
      7693        81  DOPC      C11            34.6940643865        2.0253872949       19.9599179048  MEMB      53              0.0000000000
      7694        81  DOPC      H11A           33.8249426848        1.5447102075       20.4644440528  MEMB      53              0.0000000000
      7695        81  DOPC      H11B           35.5716877560        1.8354345168       20.6139949224  MEMB      53              0.0000000000
      7696        81  DOPC      P              33.1362990348        4.0959504229       19.5361547058  MEMB      53              0.0000000000
      7697        81  DOPC      O13            33.2471751430        5.2390735043       18.6106233223  MEMB      53              0.0000000000
      7698        81  DOPC      O14            32.3537838654        4.2374847437       20.7863141617  MEMB      53              0.0000000000
      7699        81  DOPC      O12            34.5292765658        3.4271071799       19.8242400390  MEMB      53              0.0000000000
      7700        81  DOPC      O11            32.3244451334        2.9869062310       18.6955813234  MEMB      53              0.0000000000
      7701        81  DOPC      C1             30.9053399935        3.3182412299       18.6329477377  MEMB      53              0.0000000000
      7702        81  DOPC      HA             30.7240250357        4.4101733026       18.6403310161  MEMB      53              0.0000000000
      7703        81  DOPC      HB             30.3971364385        2.9019939953       19.5262617519  MEMB      53              0.0000000000
      7704        81  DOPC      C2             30.1273700166        2.8463178004       17.3655818588  MEMB      53              0.0000000000
      7705        81  DOPC      HS             29.0823813040        2.5938644793       17.6333754047  MEMB      53              0.0000000000
      7706        81  DOPC      O21            30.7158863928        1.6979784588       16.7766410626  MEMB      53              0.0000000000
      7707        81  DOPC      C21            30.9834383171        0.6425749886       17.5338442003  MEMB      53              0.0000000000
      7708        81  DOPC      O22            30.6135927161        0.4672417771       18.6827789569  MEMB      53              0.0000000000
      7709        81  DOPC      C22            31.8054295536       -0.3451836205       16.7025875969  MEMB      53              0.0000000000
      7710        81  DOPC      H2R            31.3783652087       -1.3531008110       16.8818940718  MEMB      53              0.0000000000
      7711        81  DOPC      H2S            32.8518133374       -0.3432137601       17.0663848354  MEMB      53              0.0000000000
      7712        81  DOPC      C3             30.0162869565        3.9818308484       16.2815213919  MEMB      53              0.0000000000
      7713        81  DOPC      HX             29.0667443419        4.5299513892       16.4811364684  MEMB      53              0.0000000000
      7714        81  DOPC      HY             29.8985628135        3.4980582721       15.2869880587  MEMB      53              0.0000000000
      7715        81  DOPC      O31            31.1659674348        4.8559698519       16.2284480069  MEMB      53              0.0000000000
      7716        81  DOPC      C31            30.9395563400        6.1717502729       16.2336071238  MEMB      53              0.0000000000
      7717        81  DOPC      O32            29.8509311110        6.7000365354       16.3840287693  MEMB      53              0.0000000000
      7718        81  DOPC      C32            32.2362578477        6.9462157029       16.0406550603  MEMB      53              0.0000000000
      7719        81  DOPC      H2X            32.3447455210        7.5649500723       16.9491414570  MEMB      53              0.0000000000
      7720        81  DOPC      H2Y            33.1035780662        6.2573680739       16.0115308572  MEMB      53              0.0000000000
      7721        81  DOPC      C23            31.7473678853        0.0026596422       15.1957738763  MEMB      53              0.0000000000
      7722        81  DOPC      H3R            30.6894384437        0.1934984352       14.9020604542  MEMB      53              0.0000000000
      7723        81  DOPC      H3S            32.0791952183       -0.8419713762       14.5655513129  MEMB      53              0.0000000000
      7724        81  DOPC      C24            32.6132098661        1.2058917752       14.7943317477  MEMB      53              0.0000000000
      7725        81  DOPC      H4R            33.6716230315        0.8937526765       14.6772672012  MEMB      53              0.0000000000
      7726        81  DOPC      H4S            32.5948559351        2.0099457818       15.5639265525  MEMB      53              0.0000000000
      7727        81  DOPC      C25            32.0940231271        1.8065940939       13.4918858011  MEMB      53              0.0000000000
      7728        81  DOPC      H5R            31.0211053824        2.0912071224       13.6009754569  MEMB      53              0.0000000000
      7729        81  DOPC      H5S            32.1583633323        1.0210391382       12.7070131094  MEMB      53              0.0000000000
      7730        81  DOPC      C26            32.8867522910        3.0396620022       13.0780113708  MEMB      53              0.0000000000
      7731        81  DOPC      H6R            33.9682625048        2.7834117949       13.0256813910  MEMB      53              0.0000000000
      7732        81  DOPC      H6S            32.7746237575        3.8337917791       13.8525886904  MEMB      53              0.0000000000
      7733        81  DOPC      C27            32.4299305891        3.6053641729       11.7311007942  MEMB      53              0.0000000000
      7734        81  DOPC      H7R            33.1072254205        4.4603583647       11.5176780204  MEMB      53              0.0000000000
      7735        81  DOPC      H7S            31.3947974516        4.0022571493       11.8295136700  MEMB      53              0.0000000000
      7736        81  DOPC      C28            32.4746705600        2.6015135156       10.5623592481  MEMB      53              0.0000000000
      7737        81  DOPC      H8R            32.0235366654        3.0794998580        9.6645011057  MEMB      53              0.0000000000
      7738        81  DOPC      H8S            31.8424837716        1.7178362460       10.7826737548  MEMB      53              0.0000000000
      7739        81  DOPC      C29            33.8939143793        2.1855698943       10.2887978614  MEMB      53              0.0000000000
      7740        81  DOPC      H9R            34.1940873003        1.1893314067       10.6497600181  MEMB      53              0.0000000000
      7741        81  DOPC      C210           34.7930036459        2.9540158424        9.6586214911  MEMB      53              0.0000000000
      7742        81  DOPC      H10R           35.8115905145        2.5665762300        9.5015320606  MEMB      53              0.0000000000
      7743        81  DOPC      C211           34.5523699597        4.3416682838        9.1176121866  MEMB      53              0.0000000000
      7744        81  DOPC      H11R           35.3940820946        4.9997244409        9.4097732240  MEMB      53              0.0000000000
      7745        81  DOPC      H11S           33.6513311274        4.8211958032        9.5476230525  MEMB      53              0.0000000000
      7746        81  DOPC      C212           34.4154371089        4.3203486477        7.5844439893  MEMB      53              0.0000000000
      7747        81  DOPC      H12R           34.3796460574        5.3693933217        7.2105348845  MEMB      53              0.0000000000
      7748        81  DOPC      H12S           33.4672964706        3.8203903948        7.2858389839  MEMB      53              0.0000000000
      7749        81  DOPC      C213           35.5874991996        3.5978376026        6.9296332622  MEMB      53              0.0000000000
      7750        81  DOPC      H13R           35.5592304533        2.5111142290        7.1678237509  MEMB      53              0.0000000000
      7751        81  DOPC      H13S           36.5051954241        4.0281975705        7.3809237093  MEMB      53              0.0000000000
      7752        81  DOPC      C214           35.6877768736        3.7619107892        5.4168205231  MEMB      53              0.0000000000
      7753        81  DOPC      H14R           35.6408074198        4.8506713501        5.1877231133  MEMB      53              0.0000000000
      7754        81  DOPC      H14S           34.8312707662        3.2617021507        4.9137886158  MEMB      53              0.0000000000
      7755        81  DOPC      C215           37.0260226528        3.1743491881        4.9411170873  MEMB      53              0.0000000000
      7756        81  DOPC      H15R           37.1024378438        2.1193555849        5.2864355979  MEMB      53              0.0000000000
      7757        81  DOPC      H15S           37.8294938972        3.7495626064        5.4500539790  MEMB      53              0.0000000000
      7758        81  DOPC      C216           37.2892234651        3.2527222652        3.4324575857  MEMB      53              0.0000000000
      7759        81  DOPC      H16R           36.6503370397        2.5006601176        2.9174532029  MEMB      53              0.0000000000
      7760        81  DOPC      H16S           38.3542817823        2.9924443338        3.2390769379  MEMB      53              0.0000000000
      7761        81  DOPC      C217           36.9862372939        4.6466041889        2.8780347017  MEMB      53              0.0000000000
      7762        81  DOPC      H17R           37.5148290882        5.4193911022        3.4782992718  MEMB      53              0.0000000000
      7763        81  DOPC      H17S           35.9047939265        4.8099430844        3.0387402950  MEMB      53              0.0000000000
      7764        81  DOPC      C218           37.2686407339        4.8548357343        1.3939779086  MEMB      53              0.0000000000
      7765        81  DOPC      H18R           36.7697075215        5.7923567012        1.0582241162  MEMB      53              0.0000000000
      7766        81  DOPC      H18S           36.8579635351        4.0211650796        0.7899137768  MEMB      53              0.0000000000
      7767        81  DOPC      H18T           38.3515838643        4.9336227018        1.1795367781  MEMB      53              0.0000000000
      7768        81  DOPC      C33            32.1347775502        7.8479082286       14.7923390744  MEMB      53              0.0000000000
      7769        81  DOPC      H3X            32.9481686354        8.6071890967       14.8140605910  MEMB      53              0.0000000000
      7770        81  DOPC      H3Y            31.1675323949        8.4032886254       14.7999074720  MEMB      53              0.0000000000
      7771        81  DOPC      C34            32.2580645157        7.0426716045       13.4936283038  MEMB      53              0.0000000000
      7772        81  DOPC      H4X            31.5232572040        6.2044325580       13.4938623033  MEMB      53              0.0000000000
      7773        81  DOPC      H4Y            33.2755790629        6.5928335058       13.4606033169  MEMB      53              0.0000000000
      7774        81  DOPC      C35            32.0258281748        7.8954680369       12.2401723586  MEMB      53              0.0000000000
      7775        81  DOPC      H5X            32.5661805079        8.8632773887       12.3282185325  MEMB      53              0.0000000000
      7776        81  DOPC      H5Y            30.9368135350        8.1293788383       12.1807532439  MEMB      53              0.0000000000
      7777        81  DOPC      C36            32.4669030795        7.1946406414       10.9441857583  MEMB      53              0.0000000000
      7778        81  DOPC      H6X            33.5756866638        7.2305508023       10.8570106624  MEMB      53              0.0000000000
      7779        81  DOPC      H6Y            32.1434997212        6.1364207160       10.9843157725  MEMB      53              0.0000000000
      7780        81  DOPC      C37            31.7939293141        7.8083561083        9.7157620536  MEMB      53              0.0000000000
      7781        81  DOPC      H7X            30.6999549027        7.6784628217        9.8719223914  MEMB      53              0.0000000000
      7782        81  DOPC      H7Y            32.0259807292        8.8988397438        9.7083568475  MEMB      53              0.0000000000
      7783        81  DOPC      C38            32.1847512226        7.2354749462        8.3359804936  MEMB      53              0.0000000000
      7784        81  DOPC      H8X            33.2929000730        7.1341956604        8.3073519337  MEMB      53              0.0000000000
      7785        81  DOPC      H8Y            31.9375502113        7.9969866309        7.5659102337  MEMB      53              0.0000000000
      7786        81  DOPC      C39            31.5600035745        5.9249517717        7.9357155907  MEMB      53              0.0000000000
      7787        81  DOPC      H9X            32.0129512653        5.0452813115        8.4090472740  MEMB      53              0.0000000000
      7788        81  DOPC      C310           30.4900735969        5.6844747238        7.1627373398  MEMB      53              0.0000000000
      7789        81  DOPC      H10X           30.3040137656        4.6297642815        6.9228216780  MEMB      53              0.0000000000
      7790        81  DOPC      C311           29.5439057747        6.6130277077        6.4436931885  MEMB      53              0.0000000000
      7791        81  DOPC      H11X           29.6599260195        7.6595596160        6.7856220708  MEMB      53              0.0000000000
      7792        81  DOPC      H11Y           28.4904708542        6.3315212651        6.6746027256  MEMB      53              0.0000000000
      7793        81  DOPC      C312           29.6628707634        6.5589734645        4.9179050660  MEMB      53              0.0000000000
      7794        81  DOPC      H12X           28.7355470836        7.0106408295        4.4922901743  MEMB      53              0.0000000000
      7795        81  DOPC      H12Y           29.7131216706        5.5128739396        4.5429057026  MEMB      53              0.0000000000
      7796        81  DOPC      C313           30.8603205770        7.3744369027        4.4347377155  MEMB      53              0.0000000000
      7797        81  DOPC      H13X           30.6114944076        7.8485483651        3.4691845599  MEMB      53              0.0000000000
      7798        81  DOPC      H13Y           31.0650543856        8.1912636456        5.1567610271  MEMB      53              0.0000000000
      7799        81  DOPC      C314           32.1197874575        6.5497883865        4.2062775545  MEMB      53              0.0000000000
      7800        81  DOPC      H14X           33.0035095212        7.1689362176        4.4851513114  MEMB      53              0.0000000000
      7801        81  DOPC      H14Y           32.1250431181        5.6485402187        4.8582778233  MEMB      53              0.0000000000
      7802        81  DOPC      C315           32.2415034235        6.1419659005        2.7350249352  MEMB      53              0.0000000000
      7803        81  DOPC      H15X           32.1169245624        7.0383966313        2.0842809479  MEMB      53              0.0000000000
      7804        81  DOPC      H15Y           31.4331275010        5.4196204028        2.4841702064  MEMB      53              0.0000000000
      7805        81  DOPC      C316           33.6087441682        5.5254124908        2.4673516074  MEMB      53              0.0000000000
      7806        81  DOPC      H16X           34.3563834920        6.3469648082        2.4192925318  MEMB      53              0.0000000000
      7807        81  DOPC      H16Y           33.8584865131        4.8870520128        3.3469641504  MEMB      53              0.0000000000
      7808        81  DOPC      C317           33.7009014500        4.6632872920        1.2042494361  MEMB      53              0.0000000000
      7809        81  DOPC      H17X           34.7555523720        4.3700896687        1.0429671044  MEMB      53              0.0000000000
      7810        81  DOPC      H17Y           33.1635232376        3.7113388404        1.3979707864  MEMB      53              0.0000000000
      7811        81  DOPC      C318           33.1806946054        5.3167945840       -0.0768467483  MEMB      53              0.0000000000
      7812        81  DOPC      H18X           33.1041007569        4.5581801045       -0.8848799564  MEMB      53              0.0000000000
      7813        81  DOPC      H18Y           32.1731315667        5.7543876481        0.0814588624  MEMB      53              0.0000000000
      7814        81  DOPC      H18Z           33.8668810556        6.1224683934       -0.4142646233  MEMB      53              0.0000000000
      7815        82  DOPC      N             -22.2705696245      -28.6459181783       19.8844307525  MEMB      54              0.0000000000
      7816        82  DOPC      C12           -23.7138852644      -28.4177790382       19.4160750494  MEMB      54              0.0000000000
      7817        82  DOPC      H12A          -24.3762459611      -28.4095478560       20.2812133787  MEMB      54              0.0000000000
      7818        82  DOPC      H12B          -24.0262287388      -29.2535219488       18.8008961281  MEMB      54              0.0000000000
      7819        82  DOPC      C13           -22.2040506772      -29.9101443995       20.6732787587  MEMB      54              0.0000000000
      7820        82  DOPC      H13A          -22.7431873367      -30.7074731567       20.1555071021  MEMB      54              0.0000000000
      7821        82  DOPC      H13B          -21.1957599155      -30.2346978822       20.8829813543  MEMB      54              0.0000000000
      7822        82  DOPC      H13C          -22.7803558242      -29.8235636212       21.5979903067  MEMB      54              0.0000000000
      7823        82  DOPC      C14           -21.8608811639      -27.4704771623       20.7104963427  MEMB      54              0.0000000000
      7824        82  DOPC      H14A          -20.8543059904      -27.5453370506       21.0877488861  MEMB      54              0.0000000000
      7825        82  DOPC      H14B          -21.9734366718      -26.5604431569       20.1150983087  MEMB      54              0.0000000000
      7826        82  DOPC      H14C          -22.5906592785      -27.3048833333       21.5024069834  MEMB      54              0.0000000000
      7827        82  DOPC      C15           -21.3682849581      -28.8051484891       18.7054304071  MEMB      54              0.0000000000
      7828        82  DOPC      H15A          -20.3379967274      -28.8862180021       19.0274191150  MEMB      54              0.0000000000
      7829        82  DOPC      H15B          -21.4769445414      -27.9643335157       18.0295413043  MEMB      54              0.0000000000
      7830        82  DOPC      H15C          -21.6312514398      -29.7083000164       18.1580582545  MEMB      54              0.0000000000
      7831        82  DOPC      C11           -24.0026499527      -27.1474982469       18.5694222474  MEMB      54              0.0000000000
      7832        82  DOPC      H11A          -23.3963441106      -27.2231577292       17.6361510440  MEMB      54              0.0000000000
      7833        82  DOPC      H11B          -25.0815471518      -27.1644715768       18.2691704775  MEMB      54              0.0000000000
      7834        82  DOPC      P             -23.9083171098      -24.5676410692       18.4901788567  MEMB      54              0.0000000000
      7835        82  DOPC      O13           -23.0680086934      -23.5296764053       19.1385537535  MEMB      54              0.0000000000
      7836        82  DOPC      O14           -25.3721381724      -24.3625814921       18.4237197688  MEMB      54              0.0000000000
      7837        82  DOPC      O12           -23.7006690263      -25.9410311257       19.2805157653  MEMB      54              0.0000000000
      7838        82  DOPC      O11           -23.2593687652      -24.8880418961       17.0815304807  MEMB      54              0.0000000000
      7839        82  DOPC      C1            -21.9841235351      -24.3196532566       16.7449341880  MEMB      54              0.0000000000
      7840        82  DOPC      HA            -21.1819041386      -24.7371444934       17.3959505364  MEMB      54              0.0000000000
      7841        82  DOPC      HB            -21.9778932906      -23.2118050443       16.8707176708  MEMB      54              0.0000000000
      7842        82  DOPC      C2            -21.6419036710      -24.6345967497       15.2689811569  MEMB      54              0.0000000000
      7843        82  DOPC      HS            -20.5763408506      -24.3611977059       15.0869052933  MEMB      54              0.0000000000
      7844        82  DOPC      O21           -22.5310110618      -23.8768772705       14.4355607109  MEMB      54              0.0000000000
      7845        82  DOPC      C21           -22.1175871014      -23.5713439597       13.2249461477  MEMB      54              0.0000000000
      7846        82  DOPC      O22           -20.9876620579      -23.7073141735       12.7909838502  MEMB      54              0.0000000000
      7847        82  DOPC      C22           -23.2955009296      -23.0035111198       12.4433615226  MEMB      54              0.0000000000
      7848        82  DOPC      H2R           -23.0862220193      -21.9373864044       12.2342514494  MEMB      54              0.0000000000
      7849        82  DOPC      H2S           -24.2228459478      -23.0814942340       13.0487497561  MEMB      54              0.0000000000
      7850        82  DOPC      C3            -21.8299816271      -26.1579733326       15.0312677149  MEMB      54              0.0000000000
      7851        82  DOPC      HX            -22.8172129376      -26.4469568823       15.4614866270  MEMB      54              0.0000000000
      7852        82  DOPC      HY            -21.0598730483      -26.6903357908       15.6297380189  MEMB      54              0.0000000000
      7853        82  DOPC      O31           -21.6871734305      -26.5226635654       13.6443191493  MEMB      54              0.0000000000
      7854        82  DOPC      C31           -22.7792627920      -26.9881074076       13.0423202075  MEMB      54              0.0000000000
      7855        82  DOPC      O32           -23.8846034539      -27.0802583440       13.5382618384  MEMB      54              0.0000000000
      7856        82  DOPC      C32           -22.4133356335      -27.4808901543       11.6470265911  MEMB      54              0.0000000000
      7857        82  DOPC      H2X           -22.2812227116      -26.5967793891       10.9912946632  MEMB      54              0.0000000000
      7858        82  DOPC      H2Y           -21.4448615882      -28.0168075023       11.7118316012  MEMB      54              0.0000000000
      7859        82  DOPC      C23           -23.4558878740      -23.7711436706       11.1295621253  MEMB      54              0.0000000000
      7860        82  DOPC      H3R           -23.6614675808      -24.8447297717       11.3437588453  MEMB      54              0.0000000000
      7861        82  DOPC      H3S           -22.4916384206      -23.7111385717       10.5760931399  MEMB      54              0.0000000000
      7862        82  DOPC      C24           -24.6005747260      -23.2407621459       10.2637875071  MEMB      54              0.0000000000
      7863        82  DOPC      H4R           -24.3998820029      -22.1865032475        9.9635357431  MEMB      54              0.0000000000
      7864        82  DOPC      H4S           -25.5408444762      -23.2516075645       10.8588712509  MEMB      54              0.0000000000
      7865        82  DOPC      C25           -24.7713073023      -24.1085878297        9.0162497410  MEMB      54              0.0000000000
      7866        82  DOPC      H5R           -25.6747473386      -23.7845517189        8.4502059607  MEMB      54              0.0000000000
      7867        82  DOPC      H5S           -24.9180563460      -25.1681130913        9.3245509853  MEMB      54              0.0000000000
      7868        82  DOPC      C26           -23.5456975379      -24.0111983189        8.1100645639  MEMB      54              0.0000000000
      7869        82  DOPC      H6R           -22.6026170039      -24.2381602124        8.6521252780  MEMB      54              0.0000000000
      7870        82  DOPC      H6S           -23.4822038034      -22.9632524773        7.7382173229  MEMB      54              0.0000000000
      7871        82  DOPC      C27           -23.6022030794      -24.9602075751        6.9195495757  MEMB      54              0.0000000000
      7872        82  DOPC      H7R           -24.5764025589      -24.7869498827        6.4111544575  MEMB      54              0.0000000000
      7873        82  DOPC      H7S           -23.6025399035      -26.0117819691        7.2789338291  MEMB      54              0.0000000000
      7874        82  DOPC      C28           -22.3950297856      -24.7213397459        5.9968089428  MEMB      54              0.0000000000
      7875        82  DOPC      H8R           -21.5986867500      -25.4674039086        6.2021342044  MEMB      54              0.0000000000
      7876        82  DOPC      H8S           -21.9597390879      -23.7258137834        6.2387522800  MEMB      54              0.0000000000
      7877        82  DOPC      C29           -22.8119276218      -24.7214341339        4.5589708292  MEMB      54              0.0000000000
      7878        82  DOPC      H9R           -23.8720272577      -24.9560577549        4.3805922114  MEMB      54              0.0000000000
      7879        82  DOPC      C210          -22.0120551400      -24.5413140367        3.5045575189  MEMB      54              0.0000000000
      7880        82  DOPC      H10R          -22.4533259057      -24.6198073456        2.4972934152  MEMB      54              0.0000000000
      7881        82  DOPC      C211          -20.5214376004      -24.3157549109        3.5358924804  MEMB      54              0.0000000000
      7882        82  DOPC      H11R          -20.2037052035      -23.6933564284        4.4009265263  MEMB      54              0.0000000000
      7883        82  DOPC      H11S          -20.2205780314      -23.7739914268        2.6109830272  MEMB      54              0.0000000000
      7884        82  DOPC      C212          -19.7784550829      -25.6745777932        3.5838929843  MEMB      54              0.0000000000
      7885        82  DOPC      H12R          -19.8946153818      -26.1335320606        4.5890985466  MEMB      54              0.0000000000
      7886        82  DOPC      H12S          -18.6949862200      -25.4944030465        3.4175664315  MEMB      54              0.0000000000
      7887        82  DOPC      C213          -20.3185793821      -26.6288964328        2.5117407150  MEMB      54              0.0000000000
      7888        82  DOPC      H13R          -20.0900922655      -26.1960234286        1.5110272823  MEMB      54              0.0000000000
      7889        82  DOPC      H13S          -21.4226721805      -26.6839032465        2.6200612367  MEMB      54              0.0000000000
      7890        82  DOPC      C214          -19.9439226598      -28.1123145903        2.5139543697  MEMB      54              0.0000000000
      7891        82  DOPC      H14R          -20.6636827500      -28.6737450410        3.1351692574  MEMB      54              0.0000000000
      7892        82  DOPC      H14S          -18.9426041642      -28.3225964471        2.9206094055  MEMB      54              0.0000000000
      7893        82  DOPC      C215          -20.1163953373      -28.6561927610        1.0986521977  MEMB      54              0.0000000000
      7894        82  DOPC      H15R          -19.9113049853      -29.7491040116        1.0750989927  MEMB      54              0.0000000000
      7895        82  DOPC      H15S          -19.3594424374      -28.1535757296        0.4604366767  MEMB      54              0.0000000000
      7896        82  DOPC      C216          -21.5209754485      -28.3750587027        0.5170943851  MEMB      54              0.0000000000
      7897        82  DOPC      H16R          -22.0240602464      -27.4974978265        0.9526210128  MEMB      54              0.0000000000
      7898        82  DOPC      H16S          -22.0985585622      -29.3017722895        0.6656254085  MEMB      54              0.0000000000
      7899        82  DOPC      C217          -21.4860576289      -28.0769180150       -0.9619601236  MEMB      54              0.0000000000
      7900        82  DOPC      H17R          -20.8124605296      -28.8768306350       -1.1830030423  MEMB      54              0.0000000000
      7901        82  DOPC      H17S          -21.0013735167      -27.1038560712       -1.1638364614  MEMB      54              0.0000000000
      7902        82  DOPC      C218          -22.6374227240      -28.4273332063       -1.8926676209  MEMB      54              0.0000000000
      7903        82  DOPC      H18R          -22.4921000896      -27.9151517982       -2.8688266503  MEMB      54              0.0000000000
      7904        82  DOPC      H18S          -23.6253778871      -28.1695106514       -1.4792667945  MEMB      54              0.0000000000
      7905        82  DOPC      H18T          -22.6320745471      -29.5176086953       -2.0903737368  MEMB      54              0.0000000000
      7906        82  DOPC      C33           -23.4926478599      -28.4229569072       11.0642302442  MEMB      54              0.0000000000
      7907        82  DOPC      H3X           -24.5079172947      -27.9833985155       11.2031732701  MEMB      54              0.0000000000
      7908        82  DOPC      H3Y           -23.4701122916      -29.3962505414       11.6060816013  MEMB      54              0.0000000000
      7909        82  DOPC      C34           -23.3037805093      -28.6735412986        9.5657022303  MEMB      54              0.0000000000
      7910        82  DOPC      H4X           -23.6116637792      -27.7522964633        9.0189634401  MEMB      54              0.0000000000
      7911        82  DOPC      H4Y           -23.9788670210      -29.4977971097        9.2407677241  MEMB      54              0.0000000000
      7912        82  DOPC      C35           -21.8561185286      -29.0140116448        9.1898143060  MEMB      54              0.0000000000
      7913        82  DOPC      H5X           -21.4674287528      -29.8152594470        9.8569316908  MEMB      54              0.0000000000
      7914        82  DOPC      H5Y           -21.2211755361      -28.1085108236        9.3346552135  MEMB      54              0.0000000000
      7915        82  DOPC      C36           -21.7278951011      -29.4589742829        7.7339445490  MEMB      54              0.0000000000
      7916        82  DOPC      H6X           -20.6555371449      -29.6627908966        7.5118914535  MEMB      54              0.0000000000
      7917        82  DOPC      H6Y           -22.2968965518      -30.4026210614        7.5756020119  MEMB      54              0.0000000000
      7918        82  DOPC      C37           -22.2412244963      -28.3848165571        6.7704647386  MEMB      54              0.0000000000
      7919        82  DOPC      H7X           -23.3499943431      -28.3160210898        6.8172644369  MEMB      54              0.0000000000
      7920        82  DOPC      H7Y           -21.8258846420      -27.4059013408        7.1017684204  MEMB      54              0.0000000000
      7921        82  DOPC      C38           -21.8054586759      -28.6116254656        5.3258704768  MEMB      54              0.0000000000
      7922        82  DOPC      H8X           -20.6932245867      -28.5588709555        5.2927651956  MEMB      54              0.0000000000
      7923        82  DOPC      H8Y           -22.1745792443      -27.7603465244        4.7067821018  MEMB      54              0.0000000000
      7924        82  DOPC      C39           -22.2714608844      -29.9329611181        4.7729759034  MEMB      54              0.0000000000
      7925        82  DOPC      H9X           -21.6427238995      -30.7984095890        5.0334931339  MEMB      54              0.0000000000
      7926        82  DOPC      C310          -23.3726190927      -30.1263169544        4.0329135492  MEMB      54              0.0000000000
      7927        82  DOPC      H10X          -23.5689649686      -31.1349230720        3.6405339206  MEMB      54              0.0000000000
      7928        82  DOPC      C311          -24.3649999964      -29.0708645744        3.6108297904  MEMB      54              0.0000000000
      7929        82  DOPC      H11X          -24.3286619397      -28.1676372525        4.2611713975  MEMB      54              0.0000000000
      7930        82  DOPC      H11Y          -25.3771288965      -29.5080493707        3.7270786054  MEMB      54              0.0000000000
      7931        82  DOPC      C312          -24.1585424464      -28.5873350916        2.1615988761  MEMB      54              0.0000000000
      7932        82  DOPC      H12X          -23.7065383421      -29.4282282461        1.5940386944  MEMB      54              0.0000000000
      7933        82  DOPC      H12Y          -23.5089257239      -27.6899939933        2.1773130649  MEMB      54              0.0000000000
      7934        82  DOPC      C313          -25.4388358479      -28.3006081781        1.3910069872  MEMB      54              0.0000000000
      7935        82  DOPC      H13X          -25.5378977252      -29.0038884276        0.5318787438  MEMB      54              0.0000000000
      7936        82  DOPC      H13Y          -26.2038405130      -28.5461134338        2.1558536699  MEMB      54              0.0000000000
      7937        82  DOPC      C314          -25.7606539308      -26.8664704128        0.9375908458  MEMB      54              0.0000000000
      7938        82  DOPC      H14X          -26.8698398880      -26.7964084984        1.0441387519  MEMB      54              0.0000000000
      7939        82  DOPC      H14Y          -25.3225927357      -26.1143017038        1.6188382570  MEMB      54              0.0000000000
      7940        82  DOPC      C315          -25.5314698839      -26.5367374181       -0.5504802581  MEMB      54              0.0000000000
      7941        82  DOPC      H15X          -26.3848633743      -25.9235004258       -0.9058095092  MEMB      54              0.0000000000
      7942        82  DOPC      H15Y          -25.5728438894      -27.4726024245       -1.1456514276  MEMB      54              0.0000000000
      7943        82  DOPC      C316          -24.2477899565      -25.7445059481       -0.8360753336  MEMB      54              0.0000000000
      7944        82  DOPC      H16X          -24.2508041325      -24.7853847399       -0.2944587431  MEMB      54              0.0000000000
      7945        82  DOPC      H16Y          -23.3969803022      -26.3167651359       -0.4164427638  MEMB      54              0.0000000000
      7946        82  DOPC      C317          -24.0058682003      -25.4718699605       -2.3315505359  MEMB      54              0.0000000000
      7947        82  DOPC      H17X          -24.2787025061      -26.3844973380       -2.9078860796  MEMB      54              0.0000000000
      7948        82  DOPC      H17Y          -24.6863081949      -24.6639326807       -2.6840067604  MEMB      54              0.0000000000
      7949        82  DOPC      C318          -22.5486980368      -25.1185795743       -2.6498527675  MEMB      54              0.0000000000
      7950        82  DOPC      H18X          -22.3760111379      -24.0391346596       -2.6725317945  MEMB      54              0.0000000000
      7951        82  DOPC      H18Y          -21.8690896378      -25.4698017708       -1.8543005881  MEMB      54              0.0000000000
      7952        82  DOPC      H18Z          -22.2256709076      -25.5284159408       -3.6278185412  MEMB      54              0.0000000000
      7953        83  DOPC      N             -14.8797707875      -31.6344674428       20.8466704134  MEMB      55              0.0000000000
      7954        83  DOPC      C12           -15.6126451737      -30.6034627769       20.0038064368  MEMB      55              0.0000000000
      7955        83  DOPC      H12A          -14.9450151701      -30.2881841714       19.2034236713  MEMB      55              0.0000000000
      7956        83  DOPC      H12B          -15.8516579321      -29.7327456279       20.5926114647  MEMB      55              0.0000000000
      7957        83  DOPC      C13           -13.9592551433      -31.0447440512       21.8578160047  MEMB      55              0.0000000000
      7958        83  DOPC      H13A          -14.5208065868      -30.5681780474       22.6501658587  MEMB      55              0.0000000000
      7959        83  DOPC      H13B          -13.3731677081      -31.8410440304       22.3175404417  MEMB      55              0.0000000000
      7960        83  DOPC      H13C          -13.2555304769      -30.3456678778       21.4271977570  MEMB      55              0.0000000000
      7961        83  DOPC      C14           -14.0851807007      -32.4807566271       19.9016157589  MEMB      55              0.0000000000
      7962        83  DOPC      H14A          -14.7649869575      -32.8156789255       19.1152965231  MEMB      55              0.0000000000
      7963        83  DOPC      H14B          -13.2799556166      -31.9247662012       19.4363256688  MEMB      55              0.0000000000
      7964        83  DOPC      H14C          -13.7218330003      -33.3653934235       20.4007724006  MEMB      55              0.0000000000
      7965        83  DOPC      C15           -15.8801980973      -32.5231321637       21.5218988683  MEMB      55              0.0000000000
      7966        83  DOPC      H15A          -16.6891347983      -31.9438202748       21.9309158562  MEMB      55              0.0000000000
      7967        83  DOPC      H15B          -15.4427602511      -33.1727802585       22.2643345117  MEMB      55              0.0000000000
      7968        83  DOPC      H15C          -16.3223400829      -33.1640689368       20.7510003445  MEMB      55              0.0000000000
      7969        83  DOPC      C11           -16.9385907847      -31.0758605139       19.3548507246  MEMB      55              0.0000000000
      7970        83  DOPC      H11A          -17.7204560023      -31.1914288065       20.1391748607  MEMB      55              0.0000000000
      7971        83  DOPC      H11B          -17.2817597430      -30.2648253267       18.6639957112  MEMB      55              0.0000000000
      7972        83  DOPC      P             -16.8171549192      -32.4819313926       17.1426048281  MEMB      55              0.0000000000
      7973        83  DOPC      O13           -17.5987866119      -31.3601836634       16.5786525634  MEMB      55              0.0000000000
      7974        83  DOPC      O14           -17.2792805125      -33.8501992489       16.8894304123  MEMB      55              0.0000000000
      7975        83  DOPC      O12           -16.8051725606      -32.3327969904       18.7143388168  MEMB      55              0.0000000000
      7976        83  DOPC      O11           -15.2560128850      -32.3343607911       16.8525095387  MEMB      55              0.0000000000
      7977        83  DOPC      C1            -14.7050920923      -31.0673027645       16.4823162773  MEMB      55              0.0000000000
      7978        83  DOPC      HA            -13.7137668914      -30.9355232739       16.9729914469  MEMB      55              0.0000000000
      7979        83  DOPC      HB            -15.3310606465      -30.1975221803       16.7981525036  MEMB      55              0.0000000000
      7980        83  DOPC      C2            -14.4512951411      -30.9633353956       14.9560809516  MEMB      55              0.0000000000
      7981        83  DOPC      HS            -13.9378509339      -29.9864101906       14.8052367307  MEMB      55              0.0000000000
      7982        83  DOPC      O21           -15.6495361952      -31.0045455444       14.1955533136  MEMB      55              0.0000000000
      7983        83  DOPC      C21           -16.3706090933      -29.9071573248       14.1546186763  MEMB      55              0.0000000000
      7984        83  DOPC      O22           -16.1689789992      -28.8727158423       14.7665732925  MEMB      55              0.0000000000
      7985        83  DOPC      C22           -17.4194362509      -30.1443840567       13.0603349303  MEMB      55              0.0000000000
      7986        83  DOPC      H2R           -18.3821724056      -29.7727644554       13.4593585568  MEMB      55              0.0000000000
      7987        83  DOPC      H2S           -17.5137900387      -31.2355029876       12.8778356907  MEMB      55              0.0000000000
      7988        83  DOPC      C3            -13.5589074010      -32.1195221982       14.4072587027  MEMB      55              0.0000000000
      7989        83  DOPC      HX            -14.1548210766      -33.0560803240       14.5219170802  MEMB      55              0.0000000000
      7990        83  DOPC      HY            -12.6498512539      -32.2306782552       15.0360393377  MEMB      55              0.0000000000
      7991        83  DOPC      O31           -13.2096077528      -31.9722514830       13.0046335803  MEMB      55              0.0000000000
      7992        83  DOPC      C31           -12.4329150940      -30.9267569982       12.7695197625  MEMB      55              0.0000000000
      7993        83  DOPC      O32           -12.0335332979      -30.1469378262       13.6064600201  MEMB      55              0.0000000000
      7994        83  DOPC      C32           -12.0801300493      -30.8414902151       11.3041049184  MEMB      55              0.0000000000
      7995        83  DOPC      H2X           -11.8543151627      -31.8534809539       10.9112570974  MEMB      55              0.0000000000
      7996        83  DOPC      H2Y           -12.9442644017      -30.4143786229       10.7640479539  MEMB      55              0.0000000000
      7997        83  DOPC      C23           -17.0876683436      -29.4154323739       11.7355355269  MEMB      55              0.0000000000
      7998        83  DOPC      H3R           -17.1209298542      -28.3177328257       11.9280990736  MEMB      55              0.0000000000
      7999        83  DOPC      H3S           -17.8890955540      -29.6497080459       11.0020039237  MEMB      55              0.0000000000
      8000        83  DOPC      C24           -15.7139900087      -29.7422118914       11.1184294755  MEMB      55              0.0000000000
      8001        83  DOPC      H4R           -14.9254160095      -29.6791372454       11.8999141441  MEMB      55              0.0000000000
      8002        83  DOPC      H4S           -15.4883095830      -28.9306244118       10.3923527278  MEMB      55              0.0000000000
      8003        83  DOPC      C25           -15.5907603681      -31.0923653082       10.3800593132  MEMB      55              0.0000000000
      8004        83  DOPC      H5R           -15.6382254235      -31.9163189444       11.1285940561  MEMB      55              0.0000000000
      8005        83  DOPC      H5S           -14.5920938385      -31.1451827453        9.8931183922  MEMB      55              0.0000000000
      8006        83  DOPC      C26           -16.6161062677      -31.3580354617        9.2655747704  MEMB      55              0.0000000000
      8007        83  DOPC      H6R           -17.5694942188      -31.6746818546        9.7452673785  MEMB      55              0.0000000000
      8008        83  DOPC      H6S           -16.2595796385      -32.2102197745        8.6412249706  MEMB      55              0.0000000000
      8009        83  DOPC      C27           -16.9293595964      -30.1688528246        8.3417096504  MEMB      55              0.0000000000
      8010        83  DOPC      H7R           -17.4622466279      -29.3978467991        8.9417718827  MEMB      55              0.0000000000
      8011        83  DOPC      H7S           -17.6447199808      -30.5233365200        7.5627178682  MEMB      55              0.0000000000
      8012        83  DOPC      C28           -15.7254389249      -29.5146906230        7.6433604074  MEMB      55              0.0000000000
      8013        83  DOPC      H8R           -15.2282582492      -30.2632197885        6.9887101411  MEMB      55              0.0000000000
      8014        83  DOPC      H8S           -14.9638057798      -29.1887843447        8.3804039368  MEMB      55              0.0000000000
      8015        83  DOPC      C29           -16.2637572326      -28.3168761063        6.9020711569  MEMB      55              0.0000000000
      8016        83  DOPC      H9R           -16.9843396710      -27.7105745794        7.4715647445  MEMB      55              0.0000000000
      8017        83  DOPC      C210          -15.9651997019      -27.9433110233        5.6542824852  MEMB      55              0.0000000000
      8018        83  DOPC      H10R          -16.4407776781      -27.0379131121        5.2456558270  MEMB      55              0.0000000000
      8019        83  DOPC      C211          -15.0109018711      -28.6597670707        4.7395429936  MEMB      55              0.0000000000
      8020        83  DOPC      H11R          -15.4497634015      -28.8259120200        3.7415796444  MEMB      55              0.0000000000
      8021        83  DOPC      H11S          -14.7774751385      -29.6902387925        5.0753199436  MEMB      55              0.0000000000
      8022        83  DOPC      C212          -13.7017468859      -27.8647855524        4.6406349106  MEMB      55              0.0000000000
      8023        83  DOPC      H12R          -13.3523442708      -27.6039905300        5.6668758202  MEMB      55              0.0000000000
      8024        83  DOPC      H12S          -13.8380043300      -26.9169121636        4.0766203059  MEMB      55              0.0000000000
      8025        83  DOPC      C213          -12.5974148544      -28.7014579755        3.9988003267  MEMB      55              0.0000000000
      8026        83  DOPC      H13R          -12.4588477712      -29.5629119392        4.6688157781  MEMB      55              0.0000000000
      8027        83  DOPC      H13S          -11.6482564658      -28.1273941509        3.9494108558  MEMB      55              0.0000000000
      8028        83  DOPC      C214          -12.9545977076      -29.2438426174        2.6203703998  MEMB      55              0.0000000000
      8029        83  DOPC      H14R          -13.3531793951      -28.3835202566        2.0421460306  MEMB      55              0.0000000000
      8030        83  DOPC      H14S          -13.7711651977      -29.9987921502        2.6996624445  MEMB      55              0.0000000000
      8031        83  DOPC      C215          -11.7495473653      -29.8398189775        1.8718412977  MEMB      55              0.0000000000
      8032        83  DOPC      H15R          -11.2573064904      -30.6452898760        2.4566841316  MEMB      55              0.0000000000
      8033        83  DOPC      H15S          -11.0325842245      -29.0063400376        1.7184700516  MEMB      55              0.0000000000
      8034        83  DOPC      C216          -12.1996052178      -30.3983511141        0.5272726863  MEMB      55              0.0000000000
      8035        83  DOPC      H16R          -12.9555655888      -29.6578666109        0.2399675995  MEMB      55              0.0000000000
      8036        83  DOPC      H16S          -12.6864081229      -31.3929597191        0.6185132314  MEMB      55              0.0000000000
      8037        83  DOPC      C217          -11.3001203535      -30.3054974582       -0.6943525207  MEMB      55              0.0000000000
      8038        83  DOPC      H17R          -11.6665996928      -29.4958159957       -1.3567117639  MEMB      55              0.0000000000
      8039        83  DOPC      H17S          -11.4462042522      -31.2224702499       -1.3025280686  MEMB      55              0.0000000000
      8040        83  DOPC      C218           -9.8440946260      -30.0357614471       -0.3999121302  MEMB      55              0.0000000000
      8041        83  DOPC      H18R           -9.7119638792      -29.0234356313        0.0311103002  MEMB      55              0.0000000000
      8042        83  DOPC      H18S           -9.2927091598      -30.0822196373       -1.3549080827  MEMB      55              0.0000000000
      8043        83  DOPC      H18T           -9.4345638565      -30.7817841608        0.3060111750  MEMB      55              0.0000000000
      8044        83  DOPC      C33           -10.8898460851      -29.8939286419       11.1127604327  MEMB      55              0.0000000000
      8045        83  DOPC      H3X            -9.9624885906      -30.3821977748       11.4674247105  MEMB      55              0.0000000000
      8046        83  DOPC      H3Y           -10.9835737698      -28.9696098934       11.7263445487  MEMB      55              0.0000000000
      8047        83  DOPC      C34           -10.7499597573      -29.4429004191        9.6677248356  MEMB      55              0.0000000000
      8048        83  DOPC      H4X            -9.7366600160      -28.9917234888        9.5806772752  MEMB      55              0.0000000000
      8049        83  DOPC      H4Y           -11.5031706182      -28.6545394236        9.4718931864  MEMB      55              0.0000000000
      8050        83  DOPC      C35           -10.9209822768      -30.5456144480        8.6227007821  MEMB      55              0.0000000000
      8051        83  DOPC      H5X           -11.9965816749      -30.6853868590        8.3652718943  MEMB      55              0.0000000000
      8052        83  DOPC      H5Y           -10.5548569223      -31.5057561314        9.0479706308  MEMB      55              0.0000000000
      8053        83  DOPC      C36           -10.1015199438      -30.2137042623        7.3782056693  MEMB      55              0.0000000000
      8054        83  DOPC      H6X           -10.5878191479      -29.3812824976        6.8176384411  MEMB      55              0.0000000000
      8055        83  DOPC      H6Y            -9.1102300637      -29.8431932969        7.6985096191  MEMB      55              0.0000000000
      8056        83  DOPC      C37            -9.9092391938      -31.4228121955        6.4612555546  MEMB      55              0.0000000000
      8057        83  DOPC      H7X            -8.9251163492      -31.3456810559        5.9484123361  MEMB      55              0.0000000000
      8058        83  DOPC      H7Y            -9.9035249292      -32.3564473746        7.0649227802  MEMB      55              0.0000000000
      8059        83  DOPC      C38           -11.0333661831      -31.4093443124        5.4239173646  MEMB      55              0.0000000000
      8060        83  DOPC      H8X           -10.7245037620      -30.6895465375        4.6334534496  MEMB      55              0.0000000000
      8061        83  DOPC      H8Y           -11.8961934087      -30.9588663649        5.9603908482  MEMB      55              0.0000000000
      8062        83  DOPC      C39           -11.4651844018      -32.6946337749        4.7863860404  MEMB      55              0.0000000000
      8063        83  DOPC      H9X           -10.7659665682      -33.0919394206        4.0387822986  MEMB      55              0.0000000000
      8064        83  DOPC      C310          -12.6643592345      -33.2855314112        4.9254693112  MEMB      55              0.0000000000
      8065        83  DOPC      H10X          -12.8149241461      -34.2425640234        4.4068297478  MEMB      55              0.0000000000
      8066        83  DOPC      C311          -13.8527057603      -32.8136085979        5.7407501006  MEMB      55              0.0000000000
      8067        83  DOPC      H11X          -13.6812503652      -31.8296898053        6.2284471181  MEMB      55              0.0000000000
      8068        83  DOPC      H11Y          -14.0545481445      -33.5326560565        6.5656255150  MEMB      55              0.0000000000
      8069        83  DOPC      C312          -15.1334702440      -32.6910575102        4.8757273954  MEMB      55              0.0000000000
      8070        83  DOPC      H12X          -14.9553838225      -32.0055770146        4.0196186663  MEMB      55              0.0000000000
      8071        83  DOPC      H12Y          -15.9422377507      -32.2483267967        5.5026068993  MEMB      55              0.0000000000
      8072        83  DOPC      C313          -15.6004699710      -34.0675299603        4.3799856388  MEMB      55              0.0000000000
      8073        83  DOPC      H13X          -14.7564990458      -34.5944818411        3.8907268529  MEMB      55              0.0000000000
      8074        83  DOPC      H13Y          -15.8678874003      -34.6364565402        5.2953517357  MEMB      55              0.0000000000
      8075        83  DOPC      C314          -16.7952093455      -34.1358455810        3.4184066756  MEMB      55              0.0000000000
      8076        83  DOPC      H14X          -17.0799441920      -35.2117983039        3.3252251167  MEMB      55              0.0000000000
      8077        83  DOPC      H14Y          -17.6638678554      -33.6078943320        3.8666046443  MEMB      55              0.0000000000
      8078        83  DOPC      C315          -16.5241186194      -33.6115181960        1.9951534573  MEMB      55              0.0000000000
      8079        83  DOPC      H15X          -16.2375321948      -32.5387553573        2.0383965935  MEMB      55              0.0000000000
      8080        83  DOPC      H15Y          -17.4852152460      -33.6845143031        1.4433336812  MEMB      55              0.0000000000
      8081        83  DOPC      C316          -15.4655263442      -34.4040179518        1.2017392596  MEMB      55              0.0000000000
      8082        83  DOPC      H16X          -14.4935492623      -34.3620683575        1.7426381174  MEMB      55              0.0000000000
      8083        83  DOPC      H16Y          -15.7770623206      -35.4705580803        1.1501326349  MEMB      55              0.0000000000
      8084        83  DOPC      C317          -15.2309512076      -33.8870688699       -0.2315525107  MEMB      55              0.0000000000
      8085        83  DOPC      H17X          -14.6643123555      -32.9352750810       -0.1550332228  MEMB      55              0.0000000000
      8086        83  DOPC      H17Y          -14.5696464651      -34.6012922915       -0.7721811375  MEMB      55              0.0000000000
      8087        83  DOPC      C318          -16.4917458714      -33.6404213786       -1.0694077030  MEMB      55              0.0000000000
      8088        83  DOPC      H18X          -16.2177411162      -33.2788084085       -2.0834791567  MEMB      55              0.0000000000
      8089        83  DOPC      H18Y          -17.0906423967      -34.5689048367       -1.1755321168  MEMB      55              0.0000000000
      8090        83  DOPC      H18Z          -17.1269978045      -32.8596525178       -0.5993318990  MEMB      55              0.0000000000
      8091        84  DOPC      N              23.4647397291      -30.5525051867       18.4607105539  MEMB      56              0.0000000000
      8092        84  DOPC      C12            23.1896884863      -30.2415848542       19.9374166109  MEMB      56              0.0000000000
      8093        84  DOPC      H12A           23.8912607841      -30.7959741353       20.5536810386  MEMB      56              0.0000000000
      8094        84  DOPC      H12B           22.1946993771      -30.5906995147       20.1627328567  MEMB      56              0.0000000000
      8095        84  DOPC      C13            22.4723746564      -29.8307951405       17.6015749961  MEMB      56              0.0000000000
      8096        84  DOPC      H13A           21.4549371192      -30.1292851075       17.8447320951  MEMB      56              0.0000000000
      8097        84  DOPC      H13B           22.5415714581      -28.7573877014       17.7771125602  MEMB      56              0.0000000000
      8098        84  DOPC      H13C           22.6558924371      -30.0338916558       16.5594915582  MEMB      56              0.0000000000
      8099        84  DOPC      C14            23.2723157956      -32.0164143917       18.2278755807  MEMB      56              0.0000000000
      8100        84  DOPC      H14A           22.2205678951      -32.2775130526       18.3104606662  MEMB      56              0.0000000000
      8101        84  DOPC      H14B           23.5982107319      -32.3141287283       17.2397977984  MEMB      56              0.0000000000
      8102        84  DOPC      H14C           23.8011541996      -32.6154383800       18.9551896196  MEMB      56              0.0000000000
      8103        84  DOPC      C15            24.8471286857      -30.1087825548       18.0594695852  MEMB      56              0.0000000000
      8104        84  DOPC      H15A           25.1092677432      -30.4250129922       17.0582625211  MEMB      56              0.0000000000
      8105        84  DOPC      H15B           25.6009910570      -30.4558529380       18.7508663969  MEMB      56              0.0000000000
      8106        84  DOPC      H15C           24.8939355859      -29.0177498458       18.0957038929  MEMB      56              0.0000000000
      8107        84  DOPC      C11            23.1844328767      -28.7819122420       20.4487654611  MEMB      56              0.0000000000
      8108        84  DOPC      H11A           22.4829506520      -28.2403720725       19.7761898564  MEMB      56              0.0000000000
      8109        84  DOPC      H11B           22.6992000805      -28.6911271402       21.4369585023  MEMB      56              0.0000000000
      8110        84  DOPC      P              24.8274089779      -26.8458835031       19.9603844502  MEMB      56              0.0000000000
      8111        84  DOPC      O13            26.2240067999      -26.9130020568       19.4874622350  MEMB      56              0.0000000000
      8112        84  DOPC      O14            24.5181241648      -25.7508643715       20.9170278572  MEMB      56              0.0000000000
      8113        84  DOPC      O12            24.5024159386      -28.2502407105       20.5946517510  MEMB      56              0.0000000000
      8114        84  DOPC      O11            23.8452227538      -26.8673644310       18.7304479505  MEMB      56              0.0000000000
      8115        84  DOPC      C1             22.7313879904      -25.9961751282       18.6182494585  MEMB      56              0.0000000000
      8116        84  DOPC      HA             22.9940704177      -24.9860475694       19.0020419674  MEMB      56              0.0000000000
      8117        84  DOPC      HB             21.8540937326      -26.3530192044       19.2038838944  MEMB      56              0.0000000000
      8118        84  DOPC      C2             22.3908456268      -25.8245411790       17.1200669609  MEMB      56              0.0000000000
      8119        84  DOPC      HS             21.9530262426      -24.8042297417       17.0457341512  MEMB      56              0.0000000000
      8120        84  DOPC      O21            21.5034998249      -26.8493404576       16.5956781615  MEMB      56              0.0000000000
      8121        84  DOPC      C21            20.6212585314      -26.3596820717       15.7168693038  MEMB      56              0.0000000000
      8122        84  DOPC      O22            20.0153470995      -25.3125261680       15.8491912944  MEMB      56              0.0000000000
      8123        84  DOPC      C22            20.6771802055      -27.1923429336       14.4155439260  MEMB      56              0.0000000000
      8124        84  DOPC      H2R            19.7372095575      -26.9367372144       13.9126676033  MEMB      56              0.0000000000
      8125        84  DOPC      H2S            20.6559606451      -28.2670783646       14.6706126755  MEMB      56              0.0000000000
      8126        84  DOPC      C3             23.6573466496      -25.9018700715       16.2255835701  MEMB      56              0.0000000000
      8127        84  DOPC      HX             23.3989063240      -25.3940372496       15.2651288294  MEMB      56              0.0000000000
      8128        84  DOPC      HY             23.8151487076      -26.9868168516       16.0176326140  MEMB      56              0.0000000000
      8129        84  DOPC      O31            24.8725018510      -25.4089697824       16.8382427532  MEMB      56              0.0000000000
      8130        84  DOPC      C31            25.7835454293      -25.1692850582       15.8977003713  MEMB      56              0.0000000000
      8131        84  DOPC      O32            25.5441984652      -24.6030611579       14.8509875698  MEMB      56              0.0000000000
      8132        84  DOPC      C32            27.0790952819      -25.9386448502       16.1669395427  MEMB      56              0.0000000000
      8133        84  DOPC      H2X            27.9371603752      -25.3177337528       15.8419211296  MEMB      56              0.0000000000
      8134        84  DOPC      H2Y            27.1645429014      -26.1196943460       17.2606800220  MEMB      56              0.0000000000
      8135        84  DOPC      C23            21.8312373551      -26.8391023624       13.4156933917  MEMB      56              0.0000000000
      8136        84  DOPC      H3R            22.8048733068      -27.1154624278       13.8720724725  MEMB      56              0.0000000000
      8137        84  DOPC      H3S            21.8285367422      -25.7381322858       13.2459436171  MEMB      56              0.0000000000
      8138        84  DOPC      C24            21.7599514136      -27.5125724422       12.0211791102  MEMB      56              0.0000000000
      8139        84  DOPC      H4R            20.9545469044      -27.0528636086       11.4100131430  MEMB      56              0.0000000000
      8140        84  DOPC      H4S            21.5058453864      -28.5895982226       12.1456016444  MEMB      56              0.0000000000
      8141        84  DOPC      C25            23.0651048077      -27.4438935660       11.1847687234  MEMB      56              0.0000000000
      8142        84  DOPC      H5R            22.9397010519      -28.1215489364       10.3090640385  MEMB      56              0.0000000000
      8143        84  DOPC      H5S            23.9075313652      -27.8418139501       11.7875182649  MEMB      56              0.0000000000
      8144        84  DOPC      C26            23.4348333035      -26.0465903465       10.6484608692  MEMB      56              0.0000000000
      8145        84  DOPC      H6R            23.8487538598      -25.4449906245       11.4901006716  MEMB      56              0.0000000000
      8146        84  DOPC      H6S            22.5162057690      -25.5280261934       10.3006685352  MEMB      56              0.0000000000
      8147        84  DOPC      C27            24.4640496079      -26.0217195578        9.4850186383  MEMB      56              0.0000000000
      8148        84  DOPC      H7R            25.4227071797      -26.4608613585        9.8422890386  MEMB      56              0.0000000000
      8149        84  DOPC      H7S            24.6721433951      -24.9539702407        9.2563912507  MEMB      56              0.0000000000
      8150        84  DOPC      C28            24.0701053842      -26.7245902187        8.1575930621  MEMB      56              0.0000000000
      8151        84  DOPC      H8R            24.1644703142      -27.8212866928        8.3125833400  MEMB      56              0.0000000000
      8152        84  DOPC      H8S            24.8427893357      -26.4586460520        7.3991258387  MEMB      56              0.0000000000
      8153        84  DOPC      C29            22.6694507507      -26.4212670899        7.6739871846  MEMB      56              0.0000000000
      8154        84  DOPC      H9R            21.9097415548      -26.5143067880        8.4616355606  MEMB      56              0.0000000000
      8155        84  DOPC      C210           22.2439594790      -26.1078760466        6.4315570141  MEMB      56              0.0000000000
      8156        84  DOPC      H10R           21.1825274752      -25.8771838973        6.2766767148  MEMB      56              0.0000000000
      8157        84  DOPC      C211           23.0600631158      -25.9745411893        5.1844874916  MEMB      56              0.0000000000
      8158        84  DOPC      H11R           24.1227344195      -26.0354857453        5.4765044129  MEMB      56              0.0000000000
      8159        84  DOPC      H11S           22.9282283673      -24.9473205870        4.7838675246  MEMB      56              0.0000000000
      8160        84  DOPC      C212           22.8496677662      -27.0171555107        4.0466206100  MEMB      56              0.0000000000
      8161        84  DOPC      H12R           22.9255096393      -28.0448482289        4.4602490746  MEMB      56              0.0000000000
      8162        84  DOPC      H12S           23.6917822118      -26.9239802393        3.3246637772  MEMB      56              0.0000000000
      8163        84  DOPC      C213           21.5776630485      -26.8709342981        3.1867238931  MEMB      56              0.0000000000
      8164        84  DOPC      H13R           20.7461640474      -27.3791025489        3.7063465658  MEMB      56              0.0000000000
      8165        84  DOPC      H13S           21.7224270295      -27.4031832807        2.2151247844  MEMB      56              0.0000000000
      8166        84  DOPC      C214           21.1938320315      -25.4175274540        2.8668364168  MEMB      56              0.0000000000
      8167        84  DOPC      H14R           20.9247062464      -24.8977944907        3.8144600885  MEMB      56              0.0000000000
      8168        84  DOPC      H14S           20.2816722114      -25.3944365325        2.2344329204  MEMB      56              0.0000000000
      8169        84  DOPC      C215           22.3244019374      -24.6552298581        2.1752833701  MEMB      56              0.0000000000
      8170        84  DOPC      H15R           23.1537279688      -25.3563810947        1.9347892876  MEMB      56              0.0000000000
      8171        84  DOPC      H15S           22.7094766064      -23.9041059466        2.9020025802  MEMB      56              0.0000000000
      8172        84  DOPC      C216           21.9328560876      -23.9558262079        0.8752519227  MEMB      56              0.0000000000
      8173        84  DOPC      H16R           20.8793431299      -23.6119049814        0.9550914090  MEMB      56              0.0000000000
      8174        84  DOPC      H16S           21.9953872882      -24.6739309475        0.0292351495  MEMB      56              0.0000000000
      8175        84  DOPC      C217           22.8590406398      -22.7806944311        0.5740063153  MEMB      56              0.0000000000
      8176        84  DOPC      H17R           23.2102270456      -22.3419134755        1.5347410466  MEMB      56              0.0000000000
      8177        84  DOPC      H17S           22.2880714169      -21.9850073315        0.0497565250  MEMB      56              0.0000000000
      8178        84  DOPC      C218           24.0567259277      -23.1819827455       -0.2790017504  MEMB      56              0.0000000000
      8179        84  DOPC      H18R           24.4743198563      -24.1548264434        0.0575001526  MEMB      56              0.0000000000
      8180        84  DOPC      H18S           24.8533796332      -22.4152603539       -0.1940556504  MEMB      56              0.0000000000
      8181        84  DOPC      H18T           23.7559116634      -23.2722785412       -1.3439040634  MEMB      56              0.0000000000
      8182        84  DOPC      C33            27.0620908287      -27.3048846120       15.4206267548  MEMB      56              0.0000000000
      8183        84  DOPC      H3X            26.2317343001      -27.9037394267       15.8592927815  MEMB      56              0.0000000000
      8184        84  DOPC      H3Y            28.0142760206      -27.8457198724       15.6245640258  MEMB      56              0.0000000000
      8185        84  DOPC      C34            26.8608217136      -27.2721803735       13.8855557118  MEMB      56              0.0000000000
      8186        84  DOPC      H4X            27.7605417505      -26.8392582224       13.3961011662  MEMB      56              0.0000000000
      8187        84  DOPC      H4Y            26.0079944608      -26.6066419017       13.6280897186  MEMB      56              0.0000000000
      8188        84  DOPC      C35            26.5492242783      -28.6815820991       13.3293286166  MEMB      56              0.0000000000
      8189        84  DOPC      H5X            25.5536972518      -28.9914261348       13.7138531271  MEMB      56              0.0000000000
      8190        84  DOPC      H5Y            27.3057344006      -29.3997263534       13.7210682176  MEMB      56              0.0000000000
      8191        84  DOPC      C36            26.5572752622      -28.7999242252       11.7936894258  MEMB      56              0.0000000000
      8192        84  DOPC      H6X            26.0617908387      -27.9214453344       11.3307861691  MEMB      56              0.0000000000
      8193        84  DOPC      H6Y            27.6134987395      -28.7922353851       11.4569012684  MEMB      56              0.0000000000
      8194        84  DOPC      C37            25.9280718643      -30.0931063320       11.2285505295  MEMB      56              0.0000000000
      8195        84  DOPC      H7X            26.1804553540      -30.9465401432       11.8943660728  MEMB      56              0.0000000000
      8196        84  DOPC      H7Y            24.8209661778      -29.9946160230       11.1933680227  MEMB      56              0.0000000000
      8197        84  DOPC      C38            26.4670943277      -30.3874289472        9.8119297608  MEMB      56              0.0000000000
      8198        84  DOPC      H8X            27.5786274923      -30.3715505126        9.8861416220  MEMB      56              0.0000000000
      8199        84  DOPC      H8Y            26.1897829604      -29.5164060978        9.1768103387  MEMB      56              0.0000000000
      8200        84  DOPC      C39            26.0652430230      -31.7003906597        9.1773184406  MEMB      56              0.0000000000
      8201        84  DOPC      H9X            26.4339197214      -32.5953167050        9.7012622859  MEMB      56              0.0000000000
      8202        84  DOPC      C310           25.4398281438      -31.8814266973        7.9960416305  MEMB      56              0.0000000000
      8203        84  DOPC      H10X           25.3315759454      -32.9075324454        7.6125952134  MEMB      56              0.0000000000
      8204        84  DOPC      C311           24.9897467237      -30.8230309059        7.0212353914  MEMB      56              0.0000000000
      8205        84  DOPC      H11X           25.0676211168      -29.7970040317        7.4404770764  MEMB      56              0.0000000000
      8206        84  DOPC      H11Y           23.9174850676      -30.9693026269        6.7541938919  MEMB      56              0.0000000000
      8207        84  DOPC      C312           25.8319284037      -30.9027808268        5.7304593406  MEMB      56              0.0000000000
      8208        84  DOPC      H12X           25.5459096323      -30.0545981646        5.0696397962  MEMB      56              0.0000000000
      8209        84  DOPC      H12Y           25.5591466233      -31.8321683011        5.1799112651  MEMB      56              0.0000000000
      8210        84  DOPC      C313           27.3692078220      -30.9186840498        5.9287028099  MEMB      56              0.0000000000
      8211        84  DOPC      H13X           27.6614598849      -31.8334262572        6.4883860986  MEMB      56              0.0000000000
      8212        84  DOPC      H13Y           27.8377985625      -31.0150586417        4.9241784460  MEMB      56              0.0000000000
      8213        84  DOPC      C314           27.9891534566      -29.6958095270        6.6369037535  MEMB      56              0.0000000000
      8214        84  DOPC      H14X           27.8184275087      -29.7761273954        7.7279268162  MEMB      56              0.0000000000
      8215        84  DOPC      H14Y           29.0916122711      -29.7110873123        6.4871935796  MEMB      56              0.0000000000
      8216        84  DOPC      C315           27.4318426265      -28.3453027279        6.1810399155  MEMB      56              0.0000000000
      8217        84  DOPC      H15X           27.9573396704      -27.5123357637        6.6979897365  MEMB      56              0.0000000000
      8218        84  DOPC      H15Y           26.3656943152      -28.2860806698        6.5013412255  MEMB      56              0.0000000000
      8219        84  DOPC      C316           27.4904822974      -28.1557049931        4.6646114948  MEMB      56              0.0000000000
      8220        84  DOPC      H16X           27.4123516966      -29.1148587966        4.1127971437  MEMB      56              0.0000000000
      8221        84  DOPC      H16Y           26.5826130367      -27.5949642997        4.3717529521  MEMB      56              0.0000000000
      8222        84  DOPC      C317           28.7443374385      -27.4255824149        4.1949286394  MEMB      56              0.0000000000
      8223        84  DOPC      H17X           29.0210162532      -26.6139388645        4.9050315010  MEMB      56              0.0000000000
      8224        84  DOPC      H17Y           29.5910030622      -28.1476345935        4.1494252616  MEMB      56              0.0000000000
      8225        84  DOPC      C318           28.5412919805      -26.8203128701        2.8229134719  MEMB      56              0.0000000000
      8226        84  DOPC      H18X           28.0966575997      -27.5625313476        2.1254052837  MEMB      56              0.0000000000
      8227        84  DOPC      H18Y           27.8796385021      -25.9553082760        2.8545339027  MEMB      56              0.0000000000
      8228        84  DOPC      H18Z           29.4879799193      -26.4270786407        2.4119025480  MEMB      56              0.0000000000
      8229        85  DOPC      N              24.4650189296       30.3177908322       18.9910588006  MEMB      57              0.0000000000
      8230        85  DOPC      C12            23.1144843511       30.5373251671       18.3224654431  MEMB      57              0.0000000000
      8231        85  DOPC      H12A           22.3101728208       30.1706119144       18.9702222418  MEMB      57              0.0000000000
      8232        85  DOPC      H12B           23.0280066714       29.9744516938       17.4047850689  MEMB      57              0.0000000000
      8233        85  DOPC      C13            24.6913438039       28.8859531244       19.3591572310  MEMB      57              0.0000000000
      8234        85  DOPC      H13A           23.9524958601       28.5312564197       20.0773828092  MEMB      57              0.0000000000
      8235        85  DOPC      H13B           24.6525907863       28.2299991153       18.4942385121  MEMB      57              0.0000000000
      8236        85  DOPC      H13C           25.6522459635       28.7587919047       19.8474956591  MEMB      57              0.0000000000
      8237        85  DOPC      C14            24.4812106153       31.1289764788       20.2540601278  MEMB      57              0.0000000000
      8238        85  DOPC      H14A           23.8691573494       30.6219207264       20.9976787920  MEMB      57              0.0000000000
      8239        85  DOPC      H14B           25.4721692559       31.2851721757       20.6564548820  MEMB      57              0.0000000000
      8240        85  DOPC      H14C           23.9800100504       32.0873320751       20.0959388411  MEMB      57              0.0000000000
      8241        85  DOPC      C15            25.5465364278       30.7668072958       18.0604372361  MEMB      57              0.0000000000
      8242        85  DOPC      H15A           25.6694899294       30.0451339786       17.2595962952  MEMB      57              0.0000000000
      8243        85  DOPC      H15B           26.4798423963       30.8686682950       18.6033534385  MEMB      57              0.0000000000
      8244        85  DOPC      H15C           25.2870340853       31.7324923912       17.6353505944  MEMB      57              0.0000000000
      8245        85  DOPC      C11            22.7625181195       32.0219009723       18.0397335286  MEMB      57              0.0000000000
      8246        85  DOPC      H11A           23.6451615105       32.5950337616       17.6923509416  MEMB      57              0.0000000000
      8247        85  DOPC      H11B           22.0582384267       32.0646497649       17.1735198615  MEMB      57              0.0000000000
      8248        85  DOPC      P              20.7304304382       32.2786017873       19.5632785438  MEMB      57              0.0000000000
      8249        85  DOPC      O13            20.2144312388       33.1500373030       20.6454703811  MEMB      57              0.0000000000
      8250        85  DOPC      O14            20.6723156991       30.8055083245       19.7767352008  MEMB      57              0.0000000000
      8251        85  DOPC      O12            22.2370384783       32.6409773708       19.2316503801  MEMB      57              0.0000000000
      8252        85  DOPC      O11            20.1125481182       32.5915104796       18.1626279211  MEMB      57              0.0000000000
      8253        85  DOPC      C1             18.7803524127       32.8150381420       17.7725115355  MEMB      57              0.0000000000
      8254        85  DOPC      HA             18.1752725138       33.2370970741       18.6102877354  MEMB      57              0.0000000000
      8255        85  DOPC      HB             18.3241502890       31.8571436360       17.4603254456  MEMB      57              0.0000000000
      8256        85  DOPC      C2             18.7698769944       33.8606990143       16.6210509705  MEMB      57              0.0000000000
      8257        85  DOPC      HS             17.7200408892       34.1830944497       16.4621920268  MEMB      57              0.0000000000
      8258        85  DOPC      O21            19.2803965539       33.4315528668       15.3587265719  MEMB      57              0.0000000000
      8259        85  DOPC      C21            19.1953210054       32.2371993372       14.8744947609  MEMB      57              0.0000000000
      8260        85  DOPC      O22            18.4641796016       31.3234841455       15.2148318494  MEMB      57              0.0000000000
      8261        85  DOPC      C22            20.2182205404       32.1809643432       13.7406411417  MEMB      57              0.0000000000
      8262        85  DOPC      H2R            19.8178165534       32.8009393719       12.9112202170  MEMB      57              0.0000000000
      8263        85  DOPC      H2S            20.3004654674       31.1443418205       13.3763426903  MEMB      57              0.0000000000
      8264        85  DOPC      C3             19.6215134728       35.0955391590       17.0486455064  MEMB      57              0.0000000000
      8265        85  DOPC      HX             20.5515822015       34.7541179711       17.5502456812  MEMB      57              0.0000000000
      8266        85  DOPC      HY             19.0582984544       35.6376222111       17.8309325646  MEMB      57              0.0000000000
      8267        85  DOPC      O31            19.8916890078       35.9649647603       15.9300667133  MEMB      57              0.0000000000
      8268        85  DOPC      C31            21.1201052868       35.9336572814       15.4352159223  MEMB      57              0.0000000000
      8269        85  DOPC      O32            22.0859361356       35.3888740477       15.9403734543  MEMB      57              0.0000000000
      8270        85  DOPC      C32            21.1717271432       36.8223195904       14.2065492502  MEMB      57              0.0000000000
      8271        85  DOPC      H2X            20.1265887549       36.9151444251       13.8529274606  MEMB      57              0.0000000000
      8272        85  DOPC      H2Y            21.5385705450       37.8123759274       14.5512165847  MEMB      57              0.0000000000
      8273        85  DOPC      C23            21.5839811827       32.7456044316       14.2054522601  MEMB      57              0.0000000000
      8274        85  DOPC      H3R            21.5773619647       33.0142353787       15.2846983479  MEMB      57              0.0000000000
      8275        85  DOPC      H3S            21.7745794706       33.6957532355       13.6711677403  MEMB      57              0.0000000000
      8276        85  DOPC      C24            22.7883772720       31.8412683348       13.9828302251  MEMB      57              0.0000000000
      8277        85  DOPC      H4R            22.7223432777       30.9446909349       14.6284015727  MEMB      57              0.0000000000
      8278        85  DOPC      H4S            23.6859554541       32.4202583707       14.3048543188  MEMB      57              0.0000000000
      8279        85  DOPC      C25            22.9642133588       31.4344726040       12.5228149621  MEMB      57              0.0000000000
      8280        85  DOPC      H5R            22.7058043307       32.3006655895       11.8709449194  MEMB      57              0.0000000000
      8281        85  DOPC      H5S            22.2715827912       30.6020353862       12.2675439091  MEMB      57              0.0000000000
      8282        85  DOPC      C26            24.4112043620       31.0275055453       12.2396026816  MEMB      57              0.0000000000
      8283        85  DOPC      H6R            24.7283899683       30.2734133388       12.9956466246  MEMB      57              0.0000000000
      8284        85  DOPC      H6S            25.0682053184       31.9191310721       12.3530529721  MEMB      57              0.0000000000
      8285        85  DOPC      C27            24.6047405914       30.4271913166       10.8433044897  MEMB      57              0.0000000000
      8286        85  DOPC      H7R            23.9857261570       29.5060982090       10.7883333741  MEMB      57              0.0000000000
      8287        85  DOPC      H7S            25.6764139405       30.1377718267       10.7375063514  MEMB      57              0.0000000000
      8288        85  DOPC      C28            24.1964910353       31.3631083494        9.6941344176  MEMB      57              0.0000000000
      8289        85  DOPC      H8R            24.7210473892       32.3348310386        9.8356889257  MEMB      57              0.0000000000
      8290        85  DOPC      H8S            23.1037618657       31.5651431875        9.7536477862  MEMB      57              0.0000000000
      8291        85  DOPC      C29            24.5320622482       30.7219433567        8.3717155589  MEMB      57              0.0000000000
      8292        85  DOPC      H9R            24.3986805881       29.6293740626        8.3341792093  MEMB      57              0.0000000000
      8293        85  DOPC      C210           24.9802890365       31.3591325848        7.2784658777  MEMB      57              0.0000000000
      8294        85  DOPC      H10R           25.2056952759       30.7731132653        6.3738158829  MEMB      57              0.0000000000
      8295        85  DOPC      C211           25.2290959806       32.8399837353        7.1590959732  MEMB      57              0.0000000000
      8296        85  DOPC      H11R           26.3129705347       33.0612342631        7.2781999010  MEMB      57              0.0000000000
      8297        85  DOPC      H11S           24.6806879894       33.4184215239        7.9382239790  MEMB      57              0.0000000000
      8298        85  DOPC      C212           24.7692633246       33.3513096906        5.7897873486  MEMB      57              0.0000000000
      8299        85  DOPC      H12R           23.6870733094       33.1199300581        5.6533194256  MEMB      57              0.0000000000
      8300        85  DOPC      H12S           25.3201266121       32.8287767195        4.9752091469  MEMB      57              0.0000000000
      8301        85  DOPC      C213           24.9598124721       34.8654705313        5.6527439338  MEMB      57              0.0000000000
      8302        85  DOPC      H13R           26.0367018777       35.1342556164        5.7379877537  MEMB      57              0.0000000000
      8303        85  DOPC      H13S           24.4149138718       35.3690097543        6.4831998860  MEMB      57              0.0000000000
      8304        85  DOPC      C214           24.3978325770       35.3812093203        4.3300810776  MEMB      57              0.0000000000
      8305        85  DOPC      H14R           24.2538582613       36.4823830177        4.3900608312  MEMB      57              0.0000000000
      8306        85  DOPC      H14S           23.3922195427       34.9331780091        4.1626369191  MEMB      57              0.0000000000
      8307        85  DOPC      C215           25.2968978204       35.0589759651        3.1365377843  MEMB      57              0.0000000000
      8308        85  DOPC      H15R           24.6423794479       34.6450907014        2.3328910008  MEMB      57              0.0000000000
      8309        85  DOPC      H15S           26.0426385599       34.2676781646        3.3694818347  MEMB      57              0.0000000000
      8310        85  DOPC      C216           25.9982626794       36.3156723017        2.6056036090  MEMB      57              0.0000000000
      8311        85  DOPC      H16R           26.9461030001       36.4892402865        3.1637669237  MEMB      57              0.0000000000
      8312        85  DOPC      H16S           25.3563717802       37.2109962508        2.7328052321  MEMB      57              0.0000000000
      8313        85  DOPC      C217           26.2866132935       36.1508789694        1.1228427923  MEMB      57              0.0000000000
      8314        85  DOPC      H17R           25.4840492392       35.5643311381        0.6257456031  MEMB      57              0.0000000000
      8315        85  DOPC      H17S           27.1566343589       35.4951478333        1.1544318420  MEMB      57              0.0000000000
      8316        85  DOPC      C218           26.5570536845       37.4244865296        0.3203250762  MEMB      57              0.0000000000
      8317        85  DOPC      H18R           26.7778266242       37.1594941508       -0.7386096386  MEMB      57              0.0000000000
      8318        85  DOPC      H18S           27.4174850913       37.9934172196        0.7307624267  MEMB      57              0.0000000000
      8319        85  DOPC      H18T           25.6519903271       38.0714833750        0.3263053319  MEMB      57              0.0000000000
      8320        85  DOPC      C33            22.0426545612       36.3326553448       13.0294510215  MEMB      57              0.0000000000
      8321        85  DOPC      H3X            22.8549728415       35.6460493100       13.3465781728  MEMB      57              0.0000000000
      8322        85  DOPC      H3Y            22.5357260246       37.2364970108       12.5990993920  MEMB      57              0.0000000000
      8323        85  DOPC      C34            21.2094380433       35.7234333929       11.8941324050  MEMB      57              0.0000000000
      8324        85  DOPC      H4X            20.2073174631       36.1936584024       11.8656657363  MEMB      57              0.0000000000
      8325        85  DOPC      H4Y            21.0333567265       34.6400860872       12.0497752758  MEMB      57              0.0000000000
      8326        85  DOPC      C35            21.8477774404       35.9437087140       10.5219859031  MEMB      57              0.0000000000
      8327        85  DOPC      H5X            22.8421529461       35.4431253810       10.5101276992  MEMB      57              0.0000000000
      8328        85  DOPC      H5Y            21.9983709951       37.0325909733       10.3438949379  MEMB      57              0.0000000000
      8329        85  DOPC      C36            20.9701995038       35.3637639390        9.4151447257  MEMB      57              0.0000000000
      8330        85  DOPC      H6X            20.6712631277       34.3353463780        9.7250041898  MEMB      57              0.0000000000
      8331        85  DOPC      H6Y            20.0335911188       35.9590016878        9.3082523392  MEMB      57              0.0000000000
      8332        85  DOPC      C37            21.7040289380       35.2561427767        8.0763603400  MEMB      57              0.0000000000
      8333        85  DOPC      H7X            21.5794874433       36.2038934751        7.5037306435  MEMB      57              0.0000000000
      8334        85  DOPC      H7Y            22.7931124071       35.1307963099        8.2642275257  MEMB      57              0.0000000000
      8335        85  DOPC      C38            21.2222669155       34.0407170759        7.2683185884  MEMB      57              0.0000000000
      8336        85  DOPC      H8X            21.3965838901       33.1081513839        7.8458116991  MEMB      57              0.0000000000
      8337        85  DOPC      H8Y            21.8308143395       33.9615751549        6.3418019021  MEMB      57              0.0000000000
      8338        85  DOPC      C39            19.7658008952       34.2151097667        6.9477619234  MEMB      57              0.0000000000
      8339        85  DOPC      H9X            19.0385344891       33.6556929121        7.5564024583  MEMB      57              0.0000000000
      8340        85  DOPC      C310           19.3370069380       35.0024859633        5.9604521509  MEMB      57              0.0000000000
      8341        85  DOPC      H10X           18.2527551650       35.0955294653        5.7895591321  MEMB      57              0.0000000000
      8342        85  DOPC      C311           20.2261125278       35.8084494009        5.0361659730  MEMB      57              0.0000000000
      8343        85  DOPC      H11X           21.3081541149       35.5741065799        5.1180658946  MEMB      57              0.0000000000
      8344        85  DOPC      H11Y           20.1643225205       36.9005737759        5.2242859877  MEMB      57              0.0000000000
      8345        85  DOPC      C312           19.7531844343       35.4802477932        3.6216996706  MEMB      57              0.0000000000
      8346        85  DOPC      H12X           20.2319880189       36.1891908206        2.9127406061  MEMB      57              0.0000000000
      8347        85  DOPC      H12Y           18.6542144458       35.6047067029        3.4867847460  MEMB      57              0.0000000000
      8348        85  DOPC      C313           20.1495016266       34.0514907103        3.2646714035  MEMB      57              0.0000000000
      8349        85  DOPC      H13X           20.7653005019       33.6099292734        4.0834770616  MEMB      57              0.0000000000
      8350        85  DOPC      H13Y           19.2365375577       33.4215576119        3.1671337996  MEMB      57              0.0000000000
      8351        85  DOPC      C314           20.9760962435       34.0349366490        1.9878435026  MEMB      57              0.0000000000
      8352        85  DOPC      H14X           20.4897023373       34.7110827929        1.2527192757  MEMB      57              0.0000000000
      8353        85  DOPC      H14Y           21.9995175508       34.4195581355        2.1919859097  MEMB      57              0.0000000000
      8354        85  DOPC      C315           21.0361541808       32.6386223119        1.4036011002  MEMB      57              0.0000000000
      8355        85  DOPC      H15X           21.3817248528       32.6658704688        0.3473536419  MEMB      57              0.0000000000
      8356        85  DOPC      H15Y           19.9870284556       32.2709222364        1.3950381859  MEMB      57              0.0000000000
      8357        85  DOPC      C316           21.9355634233       31.7151422425        2.2238307046  MEMB      57              0.0000000000
      8358        85  DOPC      H16X           22.9988994771       31.9935144194        2.0378716354  MEMB      57              0.0000000000
      8359        85  DOPC      H16Y           21.7427902621       31.8397779936        3.3114700825  MEMB      57              0.0000000000
      8360        85  DOPC      C317           21.6971432429       30.2572349257        1.8600762608  MEMB      57              0.0000000000
      8361        85  DOPC      H17X           21.9954517081       30.1784921449        0.7940987137  MEMB      57              0.0000000000
      8362        85  DOPC      H17Y           22.3609573751       29.5996859552        2.4656020485  MEMB      57              0.0000000000
      8363        85  DOPC      C318           20.2437410141       29.7853570078        1.9915993691  MEMB      57              0.0000000000
      8364        85  DOPC      H18X           19.6006692262       30.2525917971        1.2161060508  MEMB      57              0.0000000000
      8365        85  DOPC      H18Y           20.1847420915       28.6926909877        1.8342913885  MEMB      57              0.0000000000
      8366        85  DOPC      H18Z           19.8347845456       30.0260860888        2.9948314774  MEMB      57              0.0000000000
      8367        86  DOPC      N              29.5188197161       25.2461118630       17.3344979470  MEMB      58              0.0000000000
      8368        86  DOPC      C12            29.3287555930       26.7439800233       17.5596328366  MEMB      58              0.0000000000
      8369        86  DOPC      H12A           28.7213140590       27.1467483322       16.7655286208  MEMB      58              0.0000000000
      8370        86  DOPC      H12B           30.3061909378       27.2260457497       17.5154457296  MEMB      58              0.0000000000
      8371        86  DOPC      C13            28.2515425997       24.4873183005       17.5985206504  MEMB      58              0.0000000000
      8372        86  DOPC      H13A           28.4503791582       23.4463521529       17.8466692579  MEMB      58              0.0000000000
      8373        86  DOPC      H13B           27.7630385996       24.9151490266       18.4668469987  MEMB      58              0.0000000000
      8374        86  DOPC      H13C           27.5677331608       24.4842376329       16.7570350345  MEMB      58              0.0000000000
      8375        86  DOPC      C14            30.5523832851       24.7335279440       18.2981719159  MEMB      58              0.0000000000
      8376        86  DOPC      H14A           31.5459616416       25.0832402075       18.0675915441  MEMB      58              0.0000000000
      8377        86  DOPC      H14B           30.3079125653       25.0928345675       19.3097270997  MEMB      58              0.0000000000
      8378        86  DOPC      H14C           30.5647330342       23.6526243075       18.3296878762  MEMB      58              0.0000000000
      8379        86  DOPC      C15            29.9581480134       24.9596765326       15.9423110943  MEMB      58              0.0000000000
      8380        86  DOPC      H15A           29.9628748502       23.8853944007       15.7682537110  MEMB      58              0.0000000000
      8381        86  DOPC      H15B           30.9552688409       25.3359544140       15.7571057664  MEMB      58              0.0000000000
      8382        86  DOPC      H15C           29.2883879994       25.4020034340       15.2141304365  MEMB      58              0.0000000000
      8383        86  DOPC      C11            28.7143427409       27.2236378030       18.9006835123  MEMB      58              0.0000000000
      8384        86  DOPC      H11A           28.6393010397       28.3326633620       18.8900392924  MEMB      58              0.0000000000
      8385        86  DOPC      H11B           27.6936674573       26.8122881304       19.0503320577  MEMB      58              0.0000000000
      8386        86  DOPC      P              29.9429035587       27.6263176183       21.2339842127  MEMB      58              0.0000000000
      8387        86  DOPC      O13            30.8111788210       26.6840235984       21.9725322223  MEMB      58              0.0000000000
      8388        86  DOPC      O14            28.7186639910       28.1411146172       21.8972591197  MEMB      58              0.0000000000
      8389        86  DOPC      O12            29.5314959464       26.8070455742       19.9580620484  MEMB      58              0.0000000000
      8390        86  DOPC      O11            30.7246172570       28.8624821967       20.6641012338  MEMB      58              0.0000000000
      8391        86  DOPC      C1             31.8613514307       28.7027658448       19.8548020393  MEMB      58              0.0000000000
      8392        86  DOPC      HA             31.9582363950       27.6929319427       19.3865017412  MEMB      58              0.0000000000
      8393        86  DOPC      HB             32.7729812188       28.8706041578       20.4728022677  MEMB      58              0.0000000000
      8394        86  DOPC      C2             31.7904824476       29.7709453574       18.7600505340  MEMB      58              0.0000000000
      8395        86  DOPC      HS             31.6474505506       30.7508108032       19.2779182271  MEMB      58              0.0000000000
      8396        86  DOPC      O21            30.7204604683       29.4607224592       17.8141954138  MEMB      58              0.0000000000
      8397        86  DOPC      C21            30.1388346428       30.5248351923       17.2967992789  MEMB      58              0.0000000000
      8398        86  DOPC      O22            30.4395892105       31.6880813003       17.4960493694  MEMB      58              0.0000000000
      8399        86  DOPC      C22            28.8989367314       30.1296447950       16.4857914908  MEMB      58              0.0000000000
      8400        86  DOPC      H2R            28.3594535198       31.0810774511       16.2836023753  MEMB      58              0.0000000000
      8401        86  DOPC      H2S            28.2547040162       29.4814460210       17.1053484365  MEMB      58              0.0000000000
      8402        86  DOPC      C3             33.1515748041       29.7687055196       18.0768239881  MEMB      58              0.0000000000
      8403        86  DOPC      HX             33.9588340587       30.0194211740       18.8001226089  MEMB      58              0.0000000000
      8404        86  DOPC      HY             33.1235629470       30.5815804733       17.3039542103  MEMB      58              0.0000000000
      8405        86  DOPC      O31            33.3600185313       28.4206813651       17.6025624166  MEMB      58              0.0000000000
      8406        86  DOPC      C31            33.8419855357       28.4198498424       16.3963055786  MEMB      58              0.0000000000
      8407        86  DOPC      O32            34.2227773127       29.3839404324       15.7713703397  MEMB      58              0.0000000000
      8408        86  DOPC      C32            33.7191218361       27.0487221138       15.7877227804  MEMB      58              0.0000000000
      8409        86  DOPC      H2X            34.7215184847       26.5708845377       15.7933048473  MEMB      58              0.0000000000
      8410        86  DOPC      H2Y            33.0175108830       26.4263981946       16.3736278524  MEMB      58              0.0000000000
      8411        86  DOPC      C23            29.2158365249       29.4653287646       15.1334031815  MEMB      58              0.0000000000
      8412        86  DOPC      H3R            28.2955557065       29.4561382677       14.5030249938  MEMB      58              0.0000000000
      8413        86  DOPC      H3S            29.5490041511       28.4127368022       15.2669767364  MEMB      58              0.0000000000
      8414        86  DOPC      C24            30.3114865273       30.2344024866       14.4067128859  MEMB      58              0.0000000000
      8415        86  DOPC      H4R            31.2801410480       30.0930405611       14.9489605289  MEMB      58              0.0000000000
      8416        86  DOPC      H4S            30.0828718315       31.3212511104       14.4064939541  MEMB      58              0.0000000000
      8417        86  DOPC      C25            30.5501334234       29.7907690236       12.9676220627  MEMB      58              0.0000000000
      8418        86  DOPC      H5R            30.9025032266       28.7390959454       12.9128072178  MEMB      58              0.0000000000
      8419        86  DOPC      H5S            31.3693169867       30.4640256498       12.6347927865  MEMB      58              0.0000000000
      8420        86  DOPC      C26            29.4458828358       30.0263883449       11.9415440299  MEMB      58              0.0000000000
      8421        86  DOPC      H6R            28.9752594988       31.0158781937       12.1327284719  MEMB      58              0.0000000000
      8422        86  DOPC      H6S            28.6589686516       29.2466312656       12.0022161131  MEMB      58              0.0000000000
      8423        86  DOPC      C27            30.0823888628       30.0311466747       10.5434691306  MEMB      58              0.0000000000
      8424        86  DOPC      H7R            30.4963261512       29.0195492040       10.3325915157  MEMB      58              0.0000000000
      8425        86  DOPC      H7S            30.9473064247       30.7331673879       10.5492943844  MEMB      58              0.0000000000
      8426        86  DOPC      C28            29.1243852194       30.4659090190        9.4345045662  MEMB      58              0.0000000000
      8427        86  DOPC      H8R            28.7446376862       31.4830787591        9.6646084590  MEMB      58              0.0000000000
      8428        86  DOPC      H8S            28.2357175432       29.8031991883        9.4341709383  MEMB      58              0.0000000000
      8429        86  DOPC      C29            29.8524780946       30.4552372064        8.1155523471  MEMB      58              0.0000000000
      8430        86  DOPC      H9R            30.2677255207       31.4268353305        7.8056922088  MEMB      58              0.0000000000
      8431        86  DOPC      C210           30.0557064999       29.3834109483        7.3298740416  MEMB      58              0.0000000000
      8432        86  DOPC      H10R           30.5964929941       29.5219817402        6.3820015071  MEMB      58              0.0000000000
      8433        86  DOPC      C211           29.6081302705       27.9625029227        7.5774514496  MEMB      58              0.0000000000
      8434        86  DOPC      H11R           30.0344849548       27.5791053268        8.5316719232  MEMB      58              0.0000000000
      8435        86  DOPC      H11S           30.0348538613       27.3174110814        6.7769512322  MEMB      58              0.0000000000
      8436        86  DOPC      C212           28.0802267831       27.7186876070        7.5869359796  MEMB      58              0.0000000000
      8437        86  DOPC      H12R           27.6878341293       27.9931827625        8.5905630997  MEMB      58              0.0000000000
      8438        86  DOPC      H12S           27.9013946922       26.6260178230        7.4667304194  MEMB      58              0.0000000000
      8439        86  DOPC      C213           27.2896281638       28.4924979808        6.5042754567  MEMB      58              0.0000000000
      8440        86  DOPC      H13R           27.4417712443       29.5827575600        6.6625726325  MEMB      58              0.0000000000
      8441        86  DOPC      H13S           26.2053713783       28.2940993616        6.6537525546  MEMB      58              0.0000000000
      8442        86  DOPC      C214           27.6887544721       28.0989265257        5.0662791518  MEMB      58              0.0000000000
      8443        86  DOPC      H14R           27.3278607953       27.0633857173        4.8870933567  MEMB      58              0.0000000000
      8444        86  DOPC      H14S           28.7991959561       28.0797930353        4.9976775088  MEMB      58              0.0000000000
      8445        86  DOPC      C215           27.1946831741       29.0058790532        3.9163296348  MEMB      58              0.0000000000
      8446        86  DOPC      H15R           27.8182019668       29.9271663589        3.9191255320  MEMB      58              0.0000000000
      8447        86  DOPC      H15S           26.1467287269       29.3368678676        4.0721270482  MEMB      58              0.0000000000
      8448        86  DOPC      C216           27.3106992916       28.2939206586        2.5448927022  MEMB      58              0.0000000000
      8449        86  DOPC      H16R           26.3222067577       27.8735409191        2.2533953620  MEMB      58              0.0000000000
      8450        86  DOPC      H16S           28.0100451399       27.4331535829        2.6599244996  MEMB      58              0.0000000000
      8451        86  DOPC      C217           27.8733400059       29.1587033541        1.4046015376  MEMB      58              0.0000000000
      8452        86  DOPC      H17R           27.2205916252       30.0451058341        1.2562179109  MEMB      58              0.0000000000
      8453        86  DOPC      H17S           27.8417004494       28.5967966241        0.4412811829  MEMB      58              0.0000000000
      8454        86  DOPC      C218           29.3267188276       29.5771948207        1.6438650461  MEMB      58              0.0000000000
      8455        86  DOPC      H18R           29.5647435914       30.4962263519        1.0731774880  MEMB      58              0.0000000000
      8456        86  DOPC      H18S           30.0196846464       28.7795996673        1.3007108394  MEMB      58              0.0000000000
      8457        86  DOPC      H18T           29.5278656024       29.7694673055        2.7167390854  MEMB      58              0.0000000000
      8458        86  DOPC      C33            33.2064813347       27.2643156396       14.3555957103  MEMB      58              0.0000000000
      8459        86  DOPC      H3X            33.9250584481       27.9217067242       13.8065019518  MEMB      58              0.0000000000
      8460        86  DOPC      H3Y            32.2057047707       27.7469495074       14.3592978805  MEMB      58              0.0000000000
      8461        86  DOPC      C34            33.1684975035       25.9506704893       13.6228387017  MEMB      58              0.0000000000
      8462        86  DOPC      H4X            32.7215640256       25.1832833969       14.2870783490  MEMB      58              0.0000000000
      8463        86  DOPC      H4Y            34.2372899463       25.7111119767       13.4190166721  MEMB      58              0.0000000000
      8464        86  DOPC      C35            32.4555621974       25.8988271704       12.2805713768  MEMB      58              0.0000000000
      8465        86  DOPC      H5X            33.2784040822       25.5720820232       11.6162576890  MEMB      58              0.0000000000
      8466        86  DOPC      H5Y            32.1163432149       26.8904659171       11.9147567857  MEMB      58              0.0000000000
      8467        86  DOPC      C36            31.3410888432       24.8385555917       12.3139263667  MEMB      58              0.0000000000
      8468        86  DOPC      H6X            31.6857929207       23.9839851041       12.9438831732  MEMB      58              0.0000000000
      8469        86  DOPC      H6Y            30.4393487813       25.2832795365       12.7843813768  MEMB      58              0.0000000000
      8470        86  DOPC      C37            30.9604807793       24.1982496248       10.9729172548  MEMB      58              0.0000000000
      8471        86  DOPC      H7X            29.9541651855       23.7368026139       11.0946943202  MEMB      58              0.0000000000
      8472        86  DOPC      H7Y            30.8715507306       24.9825245421       10.1886035693  MEMB      58              0.0000000000
      8473        86  DOPC      C38            31.9279726688       23.0639881248       10.5692718396  MEMB      58              0.0000000000
      8474        86  DOPC      H8X            31.7038688020       22.1573669151       11.1751325266  MEMB      58              0.0000000000
      8475        86  DOPC      H8Y            32.9710947840       23.3387669115       10.8361500007  MEMB      58              0.0000000000
      8476        86  DOPC      C39            31.7796100073       22.7730432444        9.0988815345  MEMB      58              0.0000000000
      8477        86  DOPC      H9X            30.8201461154       22.3210768785        8.8534487468  MEMB      58              0.0000000000
      8478        86  DOPC      C310           32.6143937979       23.1017517115        8.0960809195  MEMB      58              0.0000000000
      8479        86  DOPC      H10X           32.3196981156       22.8813174433        7.0566522006  MEMB      58              0.0000000000
      8480        86  DOPC      C311           33.9073009483       23.8545128609        8.2617836841  MEMB      58              0.0000000000
      8481        86  DOPC      H11X           34.4650231622       23.9089981152        7.3033981550  MEMB      58              0.0000000000
      8482        86  DOPC      H11Y           34.5654830557       23.3083583639        8.9791337350  MEMB      58              0.0000000000
      8483        86  DOPC      C312           33.6830171748       25.2697063522        8.8361267162  MEMB      58              0.0000000000
      8484        86  DOPC      H12X           34.6479588601       25.7927305923        8.9968063037  MEMB      58              0.0000000000
      8485        86  DOPC      H12Y           33.2590049465       25.1079106072        9.8308715594  MEMB      58              0.0000000000
      8486        86  DOPC      C313           32.6630663315       26.1974426834        8.1472572034  MEMB      58              0.0000000000
      8487        86  DOPC      H13X           31.9070030768       25.6218810082        7.5749814760  MEMB      58              0.0000000000
      8488        86  DOPC      H13Y           32.1099778462       26.7356545578        8.9552333127  MEMB      58              0.0000000000
      8489        86  DOPC      C314           33.3145448598       27.2678045833        7.2691305993  MEMB      58              0.0000000000
      8490        86  DOPC      H14X           32.5331730141       27.8542569932        6.7414717836  MEMB      58              0.0000000000
      8491        86  DOPC      H14Y           33.8659001219       27.9652582168        7.9292311731  MEMB      58              0.0000000000
      8492        86  DOPC      C315           34.3106227201       26.6666597013        6.2885741681  MEMB      58              0.0000000000
      8493        86  DOPC      H15X           33.7803423401       25.9932491012        5.5822153254  MEMB      58              0.0000000000
      8494        86  DOPC      H15Y           35.0471622445       26.0497918532        6.8520256729  MEMB      58              0.0000000000
      8495        86  DOPC      C316           35.1478902387       27.6845498499        5.5187838129  MEMB      58              0.0000000000
      8496        86  DOPC      H16X           34.4908091254       28.2749821819        4.8451968854  MEMB      58              0.0000000000
      8497        86  DOPC      H16Y           35.6070716131       28.3931856915        6.2441438919  MEMB      58              0.0000000000
      8498        86  DOPC      C317           36.2067232383       26.8904732851        4.7436826339  MEMB      58              0.0000000000
      8499        86  DOPC      H17X           37.1322648312       27.4163281322        4.4694469075  MEMB      58              0.0000000000
      8500        86  DOPC      H17Y           36.5942697331       26.0834309452        5.4001595468  MEMB      58              0.0000000000
      8501        86  DOPC      C318           35.6647540163       26.3212072989        3.4569277895  MEMB      58              0.0000000000
      8502        86  DOPC      H18X           36.0533404226       25.2884609699        3.3601476611  MEMB      58              0.0000000000
      8503        86  DOPC      H18Y           34.5566582282       26.2858601692        3.4554812670  MEMB      58              0.0000000000
      8504        86  DOPC      H18Z           35.9993507290       26.9172494965        2.5782203792  MEMB      58              0.0000000000
      8505        87  DOPC      N             -29.8801416966      -21.4703417027       21.0911193463  MEMB      59              0.0000000000
      8506        87  DOPC      C12           -28.9629901222      -20.7298630297       20.1032227261  MEMB      59              0.0000000000
      8507        87  DOPC      H12A          -28.3134671968      -21.4702552626       19.6244371783  MEMB      59              0.0000000000
      8508        87  DOPC      H12B          -28.2953086852      -20.0653640796       20.6390417836  MEMB      59              0.0000000000
      8509        87  DOPC      C13           -31.0919933057      -20.6187440158       21.2820575566  MEMB      59              0.0000000000
      8510        87  DOPC      H13A          -30.8324668058      -19.6559660915       21.7088951728  MEMB      59              0.0000000000
      8511        87  DOPC      H13B          -31.4811851385      -20.3842672677       20.2870102553  MEMB      59              0.0000000000
      8512        87  DOPC      H13C          -31.8838188825      -21.0537610572       21.8788462978  MEMB      59              0.0000000000
      8513        87  DOPC      C14           -29.1232258521      -21.7112066423       22.3624550965  MEMB      59              0.0000000000
      8514        87  DOPC      H14A          -29.6913043559      -22.2604848282       23.0938249647  MEMB      59              0.0000000000
      8515        87  DOPC      H14B          -28.1983016261      -22.2500024516       22.1605331099  MEMB      59              0.0000000000
      8516        87  DOPC      H14C          -28.8562485749      -20.7660098138       22.8370693394  MEMB      59              0.0000000000
      8517        87  DOPC      C15           -30.2916259683      -22.7569964252       20.4535876562  MEMB      59              0.0000000000
      8518        87  DOPC      H15A          -29.4509292518      -23.4331902434       20.3285921300  MEMB      59              0.0000000000
      8519        87  DOPC      H15B          -30.6249228789      -22.5275341649       19.4337408144  MEMB      59              0.0000000000
      8520        87  DOPC      H15C          -31.0843956974      -23.2449259201       20.9855290633  MEMB      59              0.0000000000
      8521        87  DOPC      C11           -29.6474544130      -19.9728075691       18.9208527521  MEMB      59              0.0000000000
      8522        87  DOPC      H11A          -30.3322831523      -19.1844789237       19.2983651153  MEMB      59              0.0000000000
      8523        87  DOPC      H11B          -28.8869382255      -19.4309841385       18.3120855922  MEMB      59              0.0000000000
      8524        87  DOPC      P             -29.6696001081      -21.9253250002       17.1865160380  MEMB      59              0.0000000000
      8525        87  DOPC      O13           -30.6571146303      -22.9926427628       16.9839929080  MEMB      59              0.0000000000
      8526        87  DOPC      O14           -28.4230439108      -22.2644269434       17.8889031174  MEMB      59              0.0000000000
      8527        87  DOPC      O12           -30.4061190426      -20.8588321737       18.1004192631  MEMB      59              0.0000000000
      8528        87  DOPC      O11           -29.3732467022      -21.1173849616       15.8742863594  MEMB      59              0.0000000000
      8529        87  DOPC      C1            -30.2885652360      -20.1516143239       15.3818925237  MEMB      59              0.0000000000
      8530        87  DOPC      HA            -30.6174088883      -19.4378378367       16.1735218744  MEMB      59              0.0000000000
      8531        87  DOPC      HB            -31.2021299965      -20.6596344300       15.0104654093  MEMB      59              0.0000000000
      8532        87  DOPC      C2            -29.5571183335      -19.3397030481       14.2855198233  MEMB      59              0.0000000000
      8533        87  DOPC      HS            -30.2105397251      -18.5023046555       13.9565104003  MEMB      59              0.0000000000
      8534        87  DOPC      O21           -29.2014878210      -20.1455052818       13.1479335678  MEMB      59              0.0000000000
      8535        87  DOPC      C21           -30.1697598325      -20.8119204305       12.5624550951  MEMB      59              0.0000000000
      8536        87  DOPC      O22           -31.3676066065      -20.6437609967       12.7188287243  MEMB      59              0.0000000000
      8537        87  DOPC      C22           -29.5567339268      -21.8019377352       11.5713330435  MEMB      59              0.0000000000
      8538        87  DOPC      H2R           -29.9564875452      -22.8073596683       11.8177370170  MEMB      59              0.0000000000
      8539        87  DOPC      H2S           -28.4531740631      -21.8240826587       11.6888378319  MEMB      59              0.0000000000
      8540        87  DOPC      C3            -28.2496203894      -18.7285963957       14.8856218960  MEMB      59              0.0000000000
      8541        87  DOPC      HX            -27.6112893571      -19.5574776704       15.2750196379  MEMB      59              0.0000000000
      8542        87  DOPC      HY            -28.5405270564      -18.1122384595       15.7630042644  MEMB      59              0.0000000000
      8543        87  DOPC      O31           -27.5624929758      -17.9007884116       13.9207010818  MEMB      59              0.0000000000
      8544        87  DOPC      C31           -26.8246247845      -18.6219464680       13.0597403363  MEMB      59              0.0000000000
      8545        87  DOPC      O32           -26.2036670681      -19.6318829046       13.3269036559  MEMB      59              0.0000000000
      8546        87  DOPC      C32           -26.9989194392      -17.9808796476       11.6869552495  MEMB      59              0.0000000000
      8547        87  DOPC      H2X           -28.0955626430      -17.8650852499       11.5315127980  MEMB      59              0.0000000000
      8548        87  DOPC      H2Y           -26.5387508795      -16.9796676451       11.7780382916  MEMB      59              0.0000000000
      8549        87  DOPC      C23           -29.9423708000      -21.4352809697       10.1227516363  MEMB      59              0.0000000000
      8550        87  DOPC      H3R           -29.6296791382      -20.3897041247        9.8968261655  MEMB      59              0.0000000000
      8551        87  DOPC      H3S           -31.0521448937      -21.4755182216       10.0327049582  MEMB      59              0.0000000000
      8552        87  DOPC      C24           -29.2980335406      -22.3696015320        9.0882433101  MEMB      59              0.0000000000
      8553        87  DOPC      H4R           -29.5075838082      -23.4285665401        9.3542045210  MEMB      59              0.0000000000
      8554        87  DOPC      H4S           -28.1944881142      -22.2180000807        9.1206725544  MEMB      59              0.0000000000
      8555        87  DOPC      C25           -29.7938678203      -22.1004394956        7.6606020099  MEMB      59              0.0000000000
      8556        87  DOPC      H5R           -29.1417415451      -22.6228113192        6.9259583573  MEMB      59              0.0000000000
      8557        87  DOPC      H5S           -29.6943174902      -21.0079782978        7.4767887307  MEMB      59              0.0000000000
      8558        87  DOPC      C26           -31.2457537885      -22.5497205415        7.4213438663  MEMB      59              0.0000000000
      8559        87  DOPC      H6R           -31.8910944482      -22.1971524684        8.2556138248  MEMB      59              0.0000000000
      8560        87  DOPC      H6S           -31.2924494540      -23.6614409153        7.4268741217  MEMB      59              0.0000000000
      8561        87  DOPC      C27           -31.8371862979      -22.0165720827        6.1041402423  MEMB      59              0.0000000000
      8562        87  DOPC      H7R           -32.8838856144      -22.3846357518        6.0085856829  MEMB      59              0.0000000000
      8563        87  DOPC      H7S           -31.2546672757      -22.4336585721        5.2515739263  MEMB      59              0.0000000000
      8564        87  DOPC      C28           -31.8353032985      -20.4757717132        5.9909877184  MEMB      59              0.0000000000
      8565        87  DOPC      H8R           -32.4426641103      -20.1953631771        5.1026440835  MEMB      59              0.0000000000
      8566        87  DOPC      H8S           -30.7976787099      -20.1460961341        5.7685950853  MEMB      59              0.0000000000
      8567        87  DOPC      C29           -32.3916960393      -19.7993891722        7.2239490921  MEMB      59              0.0000000000
      8568        87  DOPC      H9R           -33.3617212422      -20.1867259247        7.5651155266  MEMB      59              0.0000000000
      8569        87  DOPC      C210          -31.8329377946      -18.8190083270        7.9503122926  MEMB      59              0.0000000000
      8570        87  DOPC      H10R          -32.3951027148      -18.4192966376        8.8093589763  MEMB      59              0.0000000000
      8571        87  DOPC      C211          -30.5103783448      -18.1507305002        7.7072796993  MEMB      59              0.0000000000
      8572        87  DOPC      H11R          -29.9379192853      -18.5832366966        6.8584207795  MEMB      59              0.0000000000
      8573        87  DOPC      H11S          -29.8601729052      -18.2577509139        8.6051412920  MEMB      59              0.0000000000
      8574        87  DOPC      C212          -30.7340077289      -16.6580709562        7.4572755533  MEMB      59              0.0000000000
      8575        87  DOPC      H12R          -29.7443500385      -16.1705880477        7.3502674978  MEMB      59              0.0000000000
      8576        87  DOPC      H12S          -31.1946046310      -16.1834136853        8.3541485009  MEMB      59              0.0000000000
      8577        87  DOPC      C213          -31.5567241543      -16.2622307783        6.2191285497  MEMB      59              0.0000000000
      8578        87  DOPC      H13R          -31.0909392637      -15.3044202983        5.9153839092  MEMB      59              0.0000000000
      8579        87  DOPC      H13S          -32.6129393106      -16.0580009733        6.4958809150  MEMB      59              0.0000000000
      8580        87  DOPC      C214          -31.5026403034      -17.1042782112        4.9359471965  MEMB      59              0.0000000000
      8581        87  DOPC      H14R          -32.3022100438      -17.8746484807        4.9640505590  MEMB      59              0.0000000000
      8582        87  DOPC      H14S          -30.5267878944      -17.6221886566        4.8424544920  MEMB      59              0.0000000000
      8583        87  DOPC      C215          -31.7147132516      -16.1690847008        3.7335966638  MEMB      59              0.0000000000
      8584        87  DOPC      H15R          -30.8666747411      -15.4501145824        3.6877241635  MEMB      59              0.0000000000
      8585        87  DOPC      H15S          -32.6362123226      -15.5720808994        3.9223834924  MEMB      59              0.0000000000
      8586        87  DOPC      C216          -31.8517080342      -16.8407702926        2.3635716538  MEMB      59              0.0000000000
      8587        87  DOPC      H16R          -32.0999649739      -16.0206579703        1.6491207652  MEMB      59              0.0000000000
      8588        87  DOPC      H16S          -32.6977298541      -17.5619102612        2.3656411023  MEMB      59              0.0000000000
      8589        87  DOPC      C217          -30.5647566180      -17.5093637934        1.8654945306  MEMB      59              0.0000000000
      8590        87  DOPC      H17R          -30.3679241537      -18.4367557055        2.4448621430  MEMB      59              0.0000000000
      8591        87  DOPC      H17S          -29.7317453197      -16.8002421564        2.0600979771  MEMB      59              0.0000000000
      8592        87  DOPC      C218          -30.5742752825      -17.8178791188        0.3690447621  MEMB      59              0.0000000000
      8593        87  DOPC      H18R          -29.5518124629      -17.9509659497       -0.0299568156  MEMB      59              0.0000000000
      8594        87  DOPC      H18S          -30.9791903569      -16.9451735038       -0.1793051818  MEMB      59              0.0000000000
      8595        87  DOPC      H18T          -31.1780714880      -18.7251929501        0.1419877364  MEMB      59              0.0000000000
      8596        87  DOPC      C33           -26.4091169240      -18.7145210510       10.4556315732  MEMB      59              0.0000000000
      8597        87  DOPC      H3X           -27.1446872024      -18.5586691191        9.6331451643  MEMB      59              0.0000000000
      8598        87  DOPC      H3Y           -26.3261250728      -19.8109857102       10.6202325423  MEMB      59              0.0000000000
      8599        87  DOPC      C34           -25.0563649544      -18.1033559464       10.0532969289  MEMB      59              0.0000000000
      8600        87  DOPC      H4X           -24.2651284441      -18.5719019490       10.6791681764  MEMB      59              0.0000000000
      8601        87  DOPC      H4Y           -25.0797609596      -17.0188737854       10.3147649005  MEMB      59              0.0000000000
      8602        87  DOPC      C35           -24.6306569733      -18.1562328210        8.5700987876  MEMB      59              0.0000000000
      8603        87  DOPC      H5X           -23.5785158165      -18.5106674264        8.5187578081  MEMB      59              0.0000000000
      8604        87  DOPC      H5Y           -24.6316798481      -17.1259365558        8.1688348721  MEMB      59              0.0000000000
      8605        87  DOPC      C36           -25.4926850788      -19.0019882628        7.6446972514  MEMB      59              0.0000000000
      8606        87  DOPC      H6X           -25.4718362959      -20.0303064246        8.0698438549  MEMB      59              0.0000000000
      8607        87  DOPC      H6Y           -26.5395795664      -18.6260840260        7.6494674358  MEMB      59              0.0000000000
      8608        87  DOPC      C37           -25.0185120853      -19.0308483919        6.1748776766  MEMB      59              0.0000000000
      8609        87  DOPC      H7X           -24.8285206116      -18.0026821875        5.7952599742  MEMB      59              0.0000000000
      8610        87  DOPC      H7Y           -24.0395825463      -19.5539222176        6.1435825846  MEMB      59              0.0000000000
      8611        87  DOPC      C38           -26.0125404406      -19.7545020292        5.2396685496  MEMB      59              0.0000000000
      8612        87  DOPC      H8X           -25.5182463246      -19.8822988464        4.2535596566  MEMB      59              0.0000000000
      8613        87  DOPC      H8Y           -26.9342835474      -19.1632088263        5.0627999038  MEMB      59              0.0000000000
      8614        87  DOPC      C39           -26.3490166988      -21.0600453910        5.9047952080  MEMB      59              0.0000000000
      8615        87  DOPC      H9X           -26.8990590773      -20.9777535136        6.8548711107  MEMB      59              0.0000000000
      8616        87  DOPC      C310          -26.0960640925      -22.2769324906        5.4321081423  MEMB      59              0.0000000000
      8617        87  DOPC      H10X          -26.2389675692      -23.1403843638        6.1009619143  MEMB      59              0.0000000000
      8618        87  DOPC      C311          -25.4316684351      -22.5782997979        4.1242512450  MEMB      59              0.0000000000
      8619        87  DOPC      H11X          -24.3552061229      -22.7685505109        4.2858960722  MEMB      59              0.0000000000
      8620        87  DOPC      H11Y          -25.4731286953      -21.7430039382        3.3909231916  MEMB      59              0.0000000000
      8621        87  DOPC      C312          -26.1623786508      -23.7863354858        3.5228079011  MEMB      59              0.0000000000
      8622        87  DOPC      H12X          -26.2477895555      -24.6166799300        4.2600601368  MEMB      59              0.0000000000
      8623        87  DOPC      H12Y          -25.5290049837      -24.1536831040        2.6860010647  MEMB      59              0.0000000000
      8624        87  DOPC      C313          -27.5601867570      -23.4543228881        2.9591760094  MEMB      59              0.0000000000
      8625        87  DOPC      H13X          -28.3268562532      -23.4863991076        3.7639401360  MEMB      59              0.0000000000
      8626        87  DOPC      H13Y          -27.5508856176      -22.4200348738        2.5495244708  MEMB      59              0.0000000000
      8627        87  DOPC      C314          -27.9397776209      -24.4298450066        1.8368916414  MEMB      59              0.0000000000
      8628        87  DOPC      H14X          -27.1645373207      -24.3450648902        1.0433180931  MEMB      59              0.0000000000
      8629        87  DOPC      H14Y          -27.8959641591      -25.4609251443        2.2547494078  MEMB      59              0.0000000000
      8630        87  DOPC      C315          -29.3322586901      -24.2442684589        1.2104731096  MEMB      59              0.0000000000
      8631        87  DOPC      H15X          -30.0956679204      -24.3906805238        2.0063140221  MEMB      59              0.0000000000
      8632        87  DOPC      H15Y          -29.5052456039      -25.0713741988        0.4861595275  MEMB      59              0.0000000000
      8633        87  DOPC      C316          -29.5813669212      -22.8829597127        0.5289786235  MEMB      59              0.0000000000
      8634        87  DOPC      H16X          -30.6782722081      -22.7912657996        0.3531156426  MEMB      59              0.0000000000
      8635        87  DOPC      H16Y          -29.3044781366      -22.0628091515        1.2282016515  MEMB      59              0.0000000000
      8636        87  DOPC      C317          -28.8693440149      -22.6454479640       -0.8229588989  MEMB      59              0.0000000000
      8637        87  DOPC      H17X          -29.5519071726      -22.0469561375       -1.4713352269  MEMB      59              0.0000000000
      8638        87  DOPC      H17Y          -27.9659956348      -22.0188497161       -0.6475392027  MEMB      59              0.0000000000
      8639        87  DOPC      C318          -28.4383738595      -23.9063671558       -1.5778727568  MEMB      59              0.0000000000
      8640        87  DOPC      H18X          -29.2380022684      -24.6778873838       -1.5669759913  MEMB      59              0.0000000000
      8641        87  DOPC      H18Y          -28.1707551972      -23.6915284531       -2.6324189603  MEMB      59              0.0000000000
      8642        87  DOPC      H18Z          -27.5418500590      -24.3199841239       -1.0765352721  MEMB      59              0.0000000000
      8643        88  DOPC      N             -34.7128678259       19.9297440903       20.5412993428  MEMB      60              0.0000000000
      8644        88  DOPC      C12           -33.2547579487       19.7201293241       20.1037406715  MEMB      60              0.0000000000
      8645        88  DOPC      H12A          -32.8053249365       18.9291833278       20.6861096565  MEMB      60              0.0000000000
      8646        88  DOPC      H12B          -32.6855475877       20.6258343386       20.3418812270  MEMB      60              0.0000000000
      8647        88  DOPC      C13           -35.5832570096       18.8256070007       20.0509559185  MEMB      60              0.0000000000
      8648        88  DOPC      H13A          -35.3722007892       18.6756170781       18.9948387539  MEMB      60              0.0000000000
      8649        88  DOPC      H13B          -35.3470006598       17.8911614050       20.5419896514  MEMB      60              0.0000000000
      8650        88  DOPC      H13C          -36.6425337599       19.0465090911       20.1595359025  MEMB      60              0.0000000000
      8651        88  DOPC      C14           -35.2075653875       21.2119104762       19.9896367918  MEMB      60              0.0000000000
      8652        88  DOPC      H14A          -34.6697829836       22.0253438961       20.4770238505  MEMB      60              0.0000000000
      8653        88  DOPC      H14B          -34.9508866394       21.2559011295       18.9350204325  MEMB      60              0.0000000000
      8654        88  DOPC      H14C          -36.2743218124       21.3353806594       20.1365302307  MEMB      60              0.0000000000
      8655        88  DOPC      C15           -34.7668673038       20.0603499356       22.0267854574  MEMB      60              0.0000000000
      8656        88  DOPC      H15A          -33.9878941978       20.7524104263       22.3589386315  MEMB      60              0.0000000000
      8657        88  DOPC      H15B          -34.6020584871       19.1371886083       22.5617235990  MEMB      60              0.0000000000
      8658        88  DOPC      H15C          -35.6936151956       20.5166802841       22.3788105788  MEMB      60              0.0000000000
      8659        88  DOPC      C11           -32.9453297131       19.4210417864       18.6124892314  MEMB      60              0.0000000000
      8660        88  DOPC      H11A          -31.8804468926       19.0792886004       18.5357114938  MEMB      60              0.0000000000
      8661        88  DOPC      H11B          -33.5557075617       18.5699146148       18.2433595013  MEMB      60              0.0000000000
      8662        88  DOPC      P             -32.1020987569       21.7376324673       17.7461422130  MEMB      60              0.0000000000
      8663        88  DOPC      O13           -30.9398124765       21.3270518738       16.9305338767  MEMB      60              0.0000000000
      8664        88  DOPC      O14           -31.9157125052       22.1847748832       19.1495300408  MEMB      60              0.0000000000
      8665        88  DOPC      O12           -33.1889254431       20.5601367400       17.7944565871  MEMB      60              0.0000000000
      8666        88  DOPC      O11           -32.8738002479       22.9033666097       17.0016908640  MEMB      60              0.0000000000
      8667        88  DOPC      C1            -34.2037032628       23.2797254138       17.3696396041  MEMB      60              0.0000000000
      8668        88  DOPC      HA            -34.3033666991       24.3743113692       17.2108713576  MEMB      60              0.0000000000
      8669        88  DOPC      HB            -34.3721364711       23.1269089245       18.4562799991  MEMB      60              0.0000000000
      8670        88  DOPC      C2            -35.3187479436       22.5398086302       16.5459872285  MEMB      60              0.0000000000
      8671        88  DOPC      HS            -36.0618608482       22.1484424389       17.2779506940  MEMB      60              0.0000000000
      8672        88  DOPC      O21           -34.7186918610       21.4618681815       15.8237963084  MEMB      60              0.0000000000
      8673        88  DOPC      C21           -35.4779528651       20.6475230153       15.1502203309  MEMB      60              0.0000000000
      8674        88  DOPC      O22           -36.6915317727       20.7168476421       15.0622217180  MEMB      60              0.0000000000
      8675        88  DOPC      C22           -34.6308871021       19.4880975046       14.6329810835  MEMB      60              0.0000000000
      8676        88  DOPC      H2R           -35.0155041345       18.6402476984       15.2372192866  MEMB      60              0.0000000000
      8677        88  DOPC      H2S           -33.5688132732       19.6538137946       14.9018217859  MEMB      60              0.0000000000
      8678        88  DOPC      C3            -36.0356232268       23.5036617853       15.5699164322  MEMB      60              0.0000000000
      8679        88  DOPC      HX            -36.4505291520       24.3293443691       16.1929731195  MEMB      60              0.0000000000
      8680        88  DOPC      HY            -36.9154670476       23.0516415042       15.0596253272  MEMB      60              0.0000000000
      8681        88  DOPC      O31           -35.0620697235       24.0275280917       14.6496319065  MEMB      60              0.0000000000
      8682        88  DOPC      C31           -34.8608107935       23.3872944809       13.4836420410  MEMB      60              0.0000000000
      8683        88  DOPC      O32           -35.6480901554       22.6419994650       12.9357031499  MEMB      60              0.0000000000
      8684        88  DOPC      C32           -33.5022345937       23.8023499082       12.9523930285  MEMB      60              0.0000000000
      8685        88  DOPC      H2X           -33.3416636965       24.8704690716       13.2075175246  MEMB      60              0.0000000000
      8686        88  DOPC      H2Y           -32.7440431446       23.1927902550       13.4920355104  MEMB      60              0.0000000000
      8687        88  DOPC      C23           -34.7930024113       19.1216729390       13.1369977706  MEMB      60              0.0000000000
      8688        88  DOPC      H3R           -35.8242429001       19.3353122360       12.7788293942  MEMB      60              0.0000000000
      8689        88  DOPC      H3S           -34.6430309683       18.0251145068       13.0538959631  MEMB      60              0.0000000000
      8690        88  DOPC      C24           -33.7675985362       19.7664302531       12.1944876804  MEMB      60              0.0000000000
      8691        88  DOPC      H4R           -32.7359300016       19.6114959577       12.5828173066  MEMB      60              0.0000000000
      8692        88  DOPC      H4S           -33.9558193593       20.8593830929       12.1821098359  MEMB      60              0.0000000000
      8693        88  DOPC      C25           -33.8501593014       19.2155894851       10.7622671975  MEMB      60              0.0000000000
      8694        88  DOPC      H5R           -34.9215005067       19.1109790763       10.4745231285  MEMB      60              0.0000000000
      8695        88  DOPC      H5S           -33.3860487207       18.2055408632       10.7214692768  MEMB      60              0.0000000000
      8696        88  DOPC      C26           -33.1641136789       20.1384264454        9.7519105293  MEMB      60              0.0000000000
      8697        88  DOPC      H6R           -32.1637984560       20.4326826245       10.1462520732  MEMB      60              0.0000000000
      8698        88  DOPC      H6S           -33.7724037733       21.0662209287        9.6575382994  MEMB      60              0.0000000000
      8699        88  DOPC      C27           -32.9715835429       19.5415194605        8.3472842767  MEMB      60              0.0000000000
      8700        88  DOPC      H7R           -32.1827928271       18.7581060103        8.4037815230  MEMB      60              0.0000000000
      8701        88  DOPC      H7S           -32.5758575647       20.3326233445        7.6785494733  MEMB      60              0.0000000000
      8702        88  DOPC      C28           -34.2289566668       18.9086967080        7.7156253688  MEMB      60              0.0000000000
      8703        88  DOPC      H8R           -34.5173127091       18.0331926651        8.3376359920  MEMB      60              0.0000000000
      8704        88  DOPC      H8S           -33.9187603857       18.5047637395        6.7246968645  MEMB      60              0.0000000000
      8705        88  DOPC      C29           -35.4209617173       19.8232852573        7.5677845321  MEMB      60              0.0000000000
      8706        88  DOPC      H9R           -35.4267464825       20.7255844758        8.2014170390  MEMB      60              0.0000000000
      8707        88  DOPC      C210          -36.4214701527       19.6413422023        6.6872265024  MEMB      60              0.0000000000
      8708        88  DOPC      H10R          -37.2254921583       20.3921286153        6.6274932742  MEMB      60              0.0000000000
      8709        88  DOPC      C211          -36.5406825865       18.5116919137        5.6946746193  MEMB      60              0.0000000000
      8710        88  DOPC      H11R          -37.6084958209       18.3477636441        5.4290517119  MEMB      60              0.0000000000
      8711        88  DOPC      H11S          -36.1854290229       17.5626578588        6.1578930978  MEMB      60              0.0000000000
      8712        88  DOPC      C212          -35.7330918607       18.7188554908        4.3899739296  MEMB      60              0.0000000000
      8713        88  DOPC      H12R          -35.9233282503       17.8414547062        3.7299200559  MEMB      60              0.0000000000
      8714        88  DOPC      H12S          -34.6461159325       18.7087441483        4.6299198468  MEMB      60              0.0000000000
      8715        88  DOPC      C213          -36.0303339109       20.0036630979        3.5838705625  MEMB      60              0.0000000000
      8716        88  DOPC      H13R          -37.1054247169       20.0923964597        3.3406346587  MEMB      60              0.0000000000
      8717        88  DOPC      H13S          -35.4912882513       19.9021993827        2.6133353672  MEMB      60              0.0000000000
      8718        88  DOPC      C214          -35.5088036963       21.2825513558        4.2628316078  MEMB      60              0.0000000000
      8719        88  DOPC      H14R          -34.5164289859       21.0130083252        4.6756685892  MEMB      60              0.0000000000
      8720        88  DOPC      H14S          -36.1503677581       21.6088804102        5.1036381847  MEMB      60              0.0000000000
      8721        88  DOPC      C215          -35.3294367288       22.4726397292        3.3288481387  MEMB      60              0.0000000000
      8722        88  DOPC      H15R          -35.0188018140       22.0767503507        2.3393014195  MEMB      60              0.0000000000
      8723        88  DOPC      H15S          -34.5116962613       23.1294352683        3.7029620313  MEMB      60              0.0000000000
      8724        88  DOPC      C216          -36.5931259244       23.3224790245        3.1636272608  MEMB      60              0.0000000000
      8725        88  DOPC      H16R          -36.6181014569       24.1416048742        3.9155076937  MEMB      60              0.0000000000
      8726        88  DOPC      H16S          -37.4809240784       22.6820864410        3.3532254768  MEMB      60              0.0000000000
      8727        88  DOPC      C217          -36.7270626662       23.8624066846        1.7365384780  MEMB      60              0.0000000000
      8728        88  DOPC      H17R          -37.5752895474       24.5808187189        1.6935119535  MEMB      60              0.0000000000
      8729        88  DOPC      H17S          -36.9791928903       22.9824825658        1.0999643003  MEMB      60              0.0000000000
      8730        88  DOPC      C218          -35.4724175966       24.4981517938        1.1386506221  MEMB      60              0.0000000000
      8731        88  DOPC      H18R          -35.5270500827       25.6071139915        1.1583733759  MEMB      60              0.0000000000
      8732        88  DOPC      H18S          -35.3163427555       24.1873548549        0.0867139510  MEMB      60              0.0000000000
      8733        88  DOPC      H18T          -34.5841429762       24.1914707642        1.6994390017  MEMB      60              0.0000000000
      8734        88  DOPC      C33           -33.3251495955       23.6309601288       11.4324780839  MEMB      60              0.0000000000
      8735        88  DOPC      H3X           -34.0615832325       24.2476358693       10.8679470211  MEMB      60              0.0000000000
      8736        88  DOPC      H3Y           -33.4693368777       22.5754541259       11.1264262029  MEMB      60              0.0000000000
      8737        88  DOPC      C34           -31.9079886422       24.0526290589       11.0722910119  MEMB      60              0.0000000000
      8738        88  DOPC      H4X           -31.1908416541       23.3024034253       11.4788200536  MEMB      60              0.0000000000
      8739        88  DOPC      H4Y           -31.6930005294       25.0280383516       11.5669727136  MEMB      60              0.0000000000
      8740        88  DOPC      C35           -31.6773382896       24.2327241777        9.5856385915  MEMB      60              0.0000000000
      8741        88  DOPC      H5X           -30.7685728053       24.8649583159        9.4728569836  MEMB      60              0.0000000000
      8742        88  DOPC      H5Y           -32.5278825271       24.7595249546        9.0977394995  MEMB      60              0.0000000000
      8743        88  DOPC      C36           -31.3565553483       22.9394011953        8.8657721354  MEMB      60              0.0000000000
      8744        88  DOPC      H6X           -30.5951574787       22.3630397500        9.4366549736  MEMB      60              0.0000000000
      8745        88  DOPC      H6Y           -32.2649323516       22.3152582815        8.7785331517  MEMB      60              0.0000000000
      8746        88  DOPC      C37           -30.8130086383       23.2663706677        7.4856983531  MEMB      60              0.0000000000
      8747        88  DOPC      H7X           -30.1068753031       24.1235830195        7.5470991401  MEMB      60              0.0000000000
      8748        88  DOPC      H7Y           -30.2203765553       22.3918808103        7.1401808355  MEMB      60              0.0000000000
      8749        88  DOPC      C38           -31.9373370362       23.6227686176        6.5062761884  MEMB      60              0.0000000000
      8750        88  DOPC      H8X           -31.4732194595       24.2023103348        5.6854063834  MEMB      60              0.0000000000
      8751        88  DOPC      H8Y           -32.6937014388       24.2954087556        6.9644197141  MEMB      60              0.0000000000
      8752        88  DOPC      C39           -32.5609444482       22.3496107429        6.0133177111  MEMB      60              0.0000000000
      8753        88  DOPC      H9X           -33.5950669886       22.1460102841        6.3399236434  MEMB      60              0.0000000000
      8754        88  DOPC      C310          -31.9531187926       21.5258208913        5.1432784344  MEMB      60              0.0000000000
      8755        88  DOPC      H10X          -32.4662712486       20.6057549591        4.8155138606  MEMB      60              0.0000000000
      8756        88  DOPC      C311          -30.5866338988       21.7541672996        4.5348686639  MEMB      60              0.0000000000
      8757        88  DOPC      H11X          -30.0788208931       20.7743337040        4.3875096970  MEMB      60              0.0000000000
      8758        88  DOPC      H11Y          -29.9020340618       22.3872903287        5.1358765854  MEMB      60              0.0000000000
      8759        88  DOPC      C312          -30.7838065305       22.4195768477        3.1581545147  MEMB      60              0.0000000000
      8760        88  DOPC      H12X          -31.4354508778       21.6780241946        2.6883671256  MEMB      60              0.0000000000
      8761        88  DOPC      H12Y          -29.8308118696       22.4055107586        2.5941404763  MEMB      60              0.0000000000
      8762        88  DOPC      C313          -31.4363742179       23.8353543569        3.1843882427  MEMB      60              0.0000000000
      8763        88  DOPC      H13X          -32.3679126730       23.7592081948        3.7845128714  MEMB      60              0.0000000000
      8764        88  DOPC      H13Y          -30.7635403513       24.5187631323        3.7341008007  MEMB      60              0.0000000000
      8765        88  DOPC      C314          -31.9186087540       24.5786598546        1.9054491938  MEMB      60              0.0000000000
      8766        88  DOPC      H14X          -32.7221020766       23.9947128557        1.4352685109  MEMB      60              0.0000000000
      8767        88  DOPC      H14Y          -32.3331722275       25.5433291821        2.2769444741  MEMB      60              0.0000000000
      8768        88  DOPC      C315          -30.9733436527       25.0488955875        0.7991103016  MEMB      60              0.0000000000
      8769        88  DOPC      H15X          -30.4882746848       24.1775007342        0.3095524004  MEMB      60              0.0000000000
      8770        88  DOPC      H15Y          -30.2157225193       25.7155446159        1.2621483883  MEMB      60              0.0000000000
      8771        88  DOPC      C316          -31.6737006232       25.9128549568       -0.2589201740  MEMB      60              0.0000000000
      8772        88  DOPC      H16X          -32.1569192440       26.7825703663        0.2416903547  MEMB      60              0.0000000000
      8773        88  DOPC      H16Y          -30.9023773454       26.3193422167       -0.9522907258  MEMB      60              0.0000000000
      8774        88  DOPC      C317          -32.7179934656       25.1389120567       -1.0654138009  MEMB      60              0.0000000000
      8775        88  DOPC      H17X          -32.7073588583       24.0739492903       -0.7413165833  MEMB      60              0.0000000000
      8776        88  DOPC      H17Y          -33.7291934194       25.5438129813       -0.8454251962  MEMB      60              0.0000000000
      8777        88  DOPC      C318          -32.4586591503       25.1653398800       -2.5656235320  MEMB      60              0.0000000000
      8778        88  DOPC      H18X          -32.1789488482       26.1771370794       -2.9108134198  MEMB      60              0.0000000000
      8779        88  DOPC      H18Y          -31.6010670427       24.5147789453       -2.7894892262  MEMB      60              0.0000000000
      8780        88  DOPC      H18Z          -33.3485918613       24.8163803910       -3.1333059531  MEMB      60              0.0000000000
      8781        89  DOPC      N              30.3985436700      -15.7501825614       19.7255698671  MEMB      61              0.0000000000
      8782        89  DOPC      C12            31.4828961724      -16.7515707759       20.1038164577  MEMB      61              0.0000000000
      8783        89  DOPC      H12A           31.6665588483      -17.3924525958       19.2442627444  MEMB      61              0.0000000000
      8784        89  DOPC      H12B           31.1371814882      -17.3814747507       20.9094231420  MEMB      61              0.0000000000
      8785        89  DOPC      C13            29.1243018731      -16.4283420757       19.3846469646  MEMB      61              0.0000000000
      8786        89  DOPC      H13A           28.4082460713      -15.6885484524       19.0379602175  MEMB      61              0.0000000000
      8787        89  DOPC      H13B           29.2346485995      -17.1854505875       18.6271719466  MEMB      61              0.0000000000
      8788        89  DOPC      H13C           28.6568004769      -16.8861271061       20.2706217908  MEMB      61              0.0000000000
      8789        89  DOPC      C14            30.9316119661      -14.9029425447       18.6001068628  MEMB      61              0.0000000000
      8790        89  DOPC      H14A           30.1884822443      -14.1943386920       18.2498564367  MEMB      61              0.0000000000
      8791        89  DOPC      H14B           31.8367454077      -14.3869077702       18.9412887671  MEMB      61              0.0000000000
      8792        89  DOPC      H14C           31.2791563486      -15.5028423855       17.7662232843  MEMB      61              0.0000000000
      8793        89  DOPC      C15            30.0864969347      -14.7969176898       20.8413256181  MEMB      61              0.0000000000
      8794        89  DOPC      H15A           29.4650739907      -15.2428023478       21.6134572662  MEMB      61              0.0000000000
      8795        89  DOPC      H15B           29.5668720126      -13.9107866764       20.4866776205  MEMB      61              0.0000000000
      8796        89  DOPC      H15C           30.9940410567      -14.4428709340       21.3032797211  MEMB      61              0.0000000000
      8797        89  DOPC      C11            32.8706066741      -16.1793475829       20.4838295853  MEMB      61              0.0000000000
      8798        89  DOPC      H11A           32.7661083355      -15.3155921240       21.1735555377  MEMB      61              0.0000000000
      8799        89  DOPC      H11B           33.4110312211      -16.9678830749       21.0680548185  MEMB      61              0.0000000000
      8800        89  DOPC      P              34.9178756577      -16.4708849469       18.8849686437  MEMB      61              0.0000000000
      8801        89  DOPC      O13            35.6585181459      -16.9453614415       20.0926267112  MEMB      61              0.0000000000
      8802        89  DOPC      O14            35.6936932750      -15.5883075057       17.9857505623  MEMB      61              0.0000000000
      8803        89  DOPC      O12            33.5737878258      -15.7474009438       19.3112321198  MEMB      61              0.0000000000
      8804        89  DOPC      O11            34.3394170785      -17.7312502757       18.0818445333  MEMB      61              0.0000000000
      8805        89  DOPC      C1             34.8097291807      -18.1303122769       16.7862506622  MEMB      61              0.0000000000
      8806        89  DOPC      HA             34.3282076331      -19.0973851631       16.5150860141  MEMB      61              0.0000000000
      8807        89  DOPC      HB             35.9075637879      -18.3111451073       16.8050814927  MEMB      61              0.0000000000
      8808        89  DOPC      C2             34.4844897872      -17.1514567420       15.6065791624  MEMB      61              0.0000000000
      8809        89  DOPC      HS             35.1420990029      -16.2603701414       15.7495700998  MEMB      61              0.0000000000
      8810        89  DOPC      O21            33.0904540374      -16.7894953071       15.5982833086  MEMB      61              0.0000000000
      8811        89  DOPC      C21            32.8809791968      -15.6144980412       15.0282443077  MEMB      61              0.0000000000
      8812        89  DOPC      O22            33.6787327175      -14.7024668776       14.9057313437  MEMB      61              0.0000000000
      8813        89  DOPC      C22            31.5102524267      -15.6484626756       14.3544302677  MEMB      61              0.0000000000
      8814        89  DOPC      H2R            30.8172479193      -15.1462683899       15.0601873405  MEMB      61              0.0000000000
      8815        89  DOPC      H2S            31.1724898786      -16.6964220670       14.2318830573  MEMB      61              0.0000000000
      8816        89  DOPC      C3             34.8358373380      -17.7653924842       14.2131876706  MEMB      61              0.0000000000
      8817        89  DOPC      HX             35.9366525895      -17.9090839569       14.1512294372  MEMB      61              0.0000000000
      8818        89  DOPC      HY             34.5509213150      -17.0082633049       13.4424407140  MEMB      61              0.0000000000
      8819        89  DOPC      O31            34.1603751098      -19.0319049393       14.0010959973  MEMB      61              0.0000000000
      8820        89  DOPC      C31            34.1346519579      -19.3972997568       12.7104231662  MEMB      61              0.0000000000
      8821        89  DOPC      O32            34.5216289027      -18.7104118583       11.7836762316  MEMB      61              0.0000000000
      8822        89  DOPC      C32            33.5859221277      -20.8300906497       12.6050238132  MEMB      61              0.0000000000
      8823        89  DOPC      H2X            34.2986096874      -21.4692143217       13.1715918244  MEMB      61              0.0000000000
      8824        89  DOPC      H2Y            32.6022921611      -20.8771189024       13.1085896671  MEMB      61              0.0000000000
      8825        89  DOPC      C23            31.5085928253      -14.9214551021       12.9810925904  MEMB      61              0.0000000000
      8826        89  DOPC      H3R            30.8593828586      -15.4769179665       12.2713755178  MEMB      61              0.0000000000
      8827        89  DOPC      H3S            32.5176390744      -14.8924530980       12.5058252333  MEMB      61              0.0000000000
      8828        89  DOPC      C24            30.9743365398      -13.5063102312       13.2200576266  MEMB      61              0.0000000000
      8829        89  DOPC      H4R            31.7738111630      -12.9233904272       13.7317333188  MEMB      61              0.0000000000
      8830        89  DOPC      H4S            30.1017303035      -13.5938655289       13.9045470797  MEMB      61              0.0000000000
      8831        89  DOPC      C25            30.4535459498      -12.6781116608       12.0416606911  MEMB      61              0.0000000000
      8832        89  DOPC      H5R            30.0335248556      -11.7748919282       12.5449087621  MEMB      61              0.0000000000
      8833        89  DOPC      H5S            29.6050886618      -13.1649154930       11.5243835111  MEMB      61              0.0000000000
      8834        89  DOPC      C26            31.5471822908      -12.1969622996       11.0807062331  MEMB      61              0.0000000000
      8835        89  DOPC      H6R            32.5025317682      -12.6634324085       11.4102371920  MEMB      61              0.0000000000
      8836        89  DOPC      H6S            31.6590297875      -11.0989254871       11.2193284057  MEMB      61              0.0000000000
      8837        89  DOPC      C27            31.3158100489      -12.5000533028        9.5873729656  MEMB      61              0.0000000000
      8838        89  DOPC      H7R            31.0213964829      -11.5614520872        9.0666808631  MEMB      61              0.0000000000
      8839        89  DOPC      H7S            30.4645894019      -13.2051954910        9.4849653634  MEMB      61              0.0000000000
      8840        89  DOPC      C28            32.5873423376      -13.0869389146        8.9294287824  MEMB      61              0.0000000000
      8841        89  DOPC      H8R            33.0420419144      -13.7604716725        9.6872060128  MEMB      61              0.0000000000
      8842        89  DOPC      H8S            33.3067413882      -12.2499501330        8.7884977767  MEMB      61              0.0000000000
      8843        89  DOPC      C29            32.3791967198      -13.8201661617        7.6222233925  MEMB      61              0.0000000000
      8844        89  DOPC      H9R            31.7343764734      -13.2983401461        6.8953722335  MEMB      61              0.0000000000
      8845        89  DOPC      C210           32.8842228804      -15.0328040444        7.3000797440  MEMB      61              0.0000000000
      8846        89  DOPC      H10R           32.6420206144      -15.4643659039        6.3152948708  MEMB      61              0.0000000000
      8847        89  DOPC      C211           33.7591479823      -15.9024108505        8.1794967923  MEMB      61              0.0000000000
      8848        89  DOPC      H11R           33.6862082432      -15.5999101711        9.2472145664  MEMB      61              0.0000000000
      8849        89  DOPC      H11S           34.8308324548      -15.7893768357        7.8964389929  MEMB      61              0.0000000000
      8850        89  DOPC      C212           33.4221864754      -17.4073365197        8.1562151142  MEMB      61              0.0000000000
      8851        89  DOPC      H12R           32.3226869162      -17.5645873038        8.2212387145  MEMB      61              0.0000000000
      8852        89  DOPC      H12S           33.8786743312      -17.8657632975        9.0663640541  MEMB      61              0.0000000000
      8853        89  DOPC      C213           33.9903186868      -18.1505746945        6.9393659707  MEMB      61              0.0000000000
      8854        89  DOPC      H13R           35.0933948018      -17.9987815906        6.9067068683  MEMB      61              0.0000000000
      8855        89  DOPC      H13S           33.5570163624      -17.7180169085        6.0140050904  MEMB      61              0.0000000000
      8856        89  DOPC      C214           33.6963497634      -19.6553161221        6.9966028416  MEMB      61              0.0000000000
      8857        89  DOPC      H14R           32.5939799029      -19.8093680397        6.9621922902  MEMB      61              0.0000000000
      8858        89  DOPC      H14S           34.0616995960      -20.0422005545        7.9762500277  MEMB      61              0.0000000000
      8859        89  DOPC      C215           34.3684471682      -20.4924844867        5.8944058656  MEMB      61              0.0000000000
      8860        89  DOPC      H15R           34.0374610467      -21.5414415486        6.0381765333  MEMB      61              0.0000000000
      8861        89  DOPC      H15S           35.4645822324      -20.4871480517        6.0372241324  MEMB      61              0.0000000000
      8862        89  DOPC      C216           34.0938950047      -20.0447114010        4.4498336560  MEMB      61              0.0000000000
      8863        89  DOPC      H16R           34.3063509986      -18.9586031027        4.3397764608  MEMB      61              0.0000000000
      8864        89  DOPC      H16S           33.0171281458      -20.2064113052        4.2218566576  MEMB      61              0.0000000000
      8865        89  DOPC      C217           34.9586563719      -20.7968197197        3.4210551580  MEMB      61              0.0000000000
      8866        89  DOPC      H17R           34.9372366731      -21.8862285339        3.6431216650  MEMB      61              0.0000000000
      8867        89  DOPC      H17S           36.0178052474      -20.4724755222        3.5344368747  MEMB      61              0.0000000000
      8868        89  DOPC      C218           34.5120654347      -20.5772831650        1.9739988720  MEMB      61              0.0000000000
      8869        89  DOPC      H18R           35.0342191162      -21.2831792676        1.2920294812  MEMB      61              0.0000000000
      8870        89  DOPC      H18S           34.7347846871      -19.5386633911        1.6492526403  MEMB      61              0.0000000000
      8871        89  DOPC      H18T           33.4171640481      -20.7421799924        1.8798804692  MEMB      61              0.0000000000
      8872        89  DOPC      C33            33.4939727318      -21.3892764497       11.1558577026  MEMB      61              0.0000000000
      8873        89  DOPC      H3X            33.1895972521      -22.4602908056       11.2288125687  MEMB      61              0.0000000000
      8874        89  DOPC      H3Y            34.5016494899      -21.3719796304       10.6827857388  MEMB      61              0.0000000000
      8875        89  DOPC      C34            32.4835837640      -20.6940936972       10.2187232035  MEMB      61              0.0000000000
      8876        89  DOPC      H4X            32.4647808211      -21.2713238580        9.2654752571  MEMB      61              0.0000000000
      8877        89  DOPC      H4Y            32.8386915017      -19.6691320874        9.9735699838  MEMB      61              0.0000000000
      8878        89  DOPC      C35            31.0564405837      -20.6169796997       10.7832972811  MEMB      61              0.0000000000
      8879        89  DOPC      H5X            30.9307262688      -19.6718105029       11.3553221012  MEMB      61              0.0000000000
      8880        89  DOPC      H5Y            30.9389174613      -21.4599390282       11.5030082288  MEMB      61              0.0000000000
      8881        89  DOPC      C36            29.9248937917      -20.7512972366        9.7424036867  MEMB      61              0.0000000000
      8882        89  DOPC      H6X            30.1596746645      -21.5114353297        8.9680819254  MEMB      61              0.0000000000
      8883        89  DOPC      H6Y            29.0340887405      -21.1295330829       10.2899172006  MEMB      61              0.0000000000
      8884        89  DOPC      C37            29.4694219248      -19.4201275567        9.1206445689  MEMB      61              0.0000000000
      8885        89  DOPC      H7X            29.4355010807      -18.6857515975        9.9512233897  MEMB      61              0.0000000000
      8886        89  DOPC      H7Y            30.2043885327      -19.0609505241        8.3699752449  MEMB      61              0.0000000000
      8887        89  DOPC      C38            28.0531057566      -19.5120238885        8.5070244107  MEMB      61              0.0000000000
      8888        89  DOPC      H8X            27.4335522659      -20.0736548855        9.2262838803  MEMB      61              0.0000000000
      8889        89  DOPC      H8Y            28.1058464323      -20.1455880701        7.5968410601  MEMB      61              0.0000000000
      8890        89  DOPC      C39            27.3442869775      -18.1995866240        8.2739854192  MEMB      61              0.0000000000
      8891        89  DOPC      H9X            26.8568449826      -17.7899375480        9.1581419258  MEMB      61              0.0000000000
      8892        89  DOPC      C310           27.0610570410      -17.6120001669        7.1048638935  MEMB      61              0.0000000000
      8893        89  DOPC      H10X           26.5652030317      -16.6307152518        7.0869698270  MEMB      61              0.0000000000
      8894        89  DOPC      C311           27.4138398940      -18.1834180355        5.7764240450  MEMB      61              0.0000000000
      8895        89  DOPC      H11X           26.4560216342      -18.4840625986        5.3101259390  MEMB      61              0.0000000000
      8896        89  DOPC      H11Y           28.0429625951      -19.0910746706        5.9088381546  MEMB      61              0.0000000000
      8897        89  DOPC      C312           28.1453926789      -17.3069374163        4.7659320011  MEMB      61              0.0000000000
      8898        89  DOPC      H12X           28.7855982886      -16.5701205186        5.2934199659  MEMB      61              0.0000000000
      8899        89  DOPC      H12Y           27.4011215249      -16.7518609325        4.1509134148  MEMB      61              0.0000000000
      8900        89  DOPC      C313           29.0322935796      -18.1666251886        3.8670225781  MEMB      61              0.0000000000
      8901        89  DOPC      H13X           29.5301680287      -18.9699160341        4.4602398620  MEMB      61              0.0000000000
      8902        89  DOPC      H13Y           28.3998441885      -18.6674361975        3.0989157506  MEMB      61              0.0000000000
      8903        89  DOPC      C314           30.1425761845      -17.3585719088        3.2080864058  MEMB      61              0.0000000000
      8904        89  DOPC      H14X           30.5168863568      -18.0109933777        2.3923057781  MEMB      61              0.0000000000
      8905        89  DOPC      H14Y           29.7520518771      -16.4180151952        2.7627972030  MEMB      61              0.0000000000
      8906        89  DOPC      C315           31.3203790070      -17.0695409211        4.1546258409  MEMB      61              0.0000000000
      8907        89  DOPC      H15X           31.6964891745      -18.0486013134        4.5322620287  MEMB      61              0.0000000000
      8908        89  DOPC      H15Y           30.9807726912      -16.4840067529        5.0358739118  MEMB      61              0.0000000000
      8909        89  DOPC      C316           32.4802023885      -16.3387997287        3.4612323549  MEMB      61              0.0000000000
      8910        89  DOPC      H16X           32.2725928277      -15.2457913562        3.4346188519  MEMB      61              0.0000000000
      8911        89  DOPC      H16Y           33.4123683024      -16.4905513389        4.0509774613  MEMB      61              0.0000000000
      8912        89  DOPC      C317           32.6926830884      -16.8436891336        2.0292463494  MEMB      61              0.0000000000
      8913        89  DOPC      H17X           32.7031574303      -17.9595881468        2.0466656133  MEMB      61              0.0000000000
      8914        89  DOPC      H17Y           31.8305191971      -16.5206709478        1.3994907380  MEMB      61              0.0000000000
      8915        89  DOPC      C318           33.9657398031      -16.3569959564        1.3635743930  MEMB      61              0.0000000000
      8916        89  DOPC      H18X           34.8558205316      -16.6471708103        1.9616679533  MEMB      61              0.0000000000
      8917        89  DOPC      H18Y           34.0457338392      -16.8168050722        0.3550808619  MEMB      61              0.0000000000
      8918        89  DOPC      H18Z           33.9639190127      -15.2562266911        1.2396068103  MEMB      61              0.0000000000
      8919        90  DOPC      N              31.6171169884      -22.7916992903       18.5549992551  MEMB      62              0.0000000000
      8920        90  DOPC      C12            31.1050578586      -23.6771924459       19.6841477636  MEMB      62              0.0000000000
      8921        90  DOPC      H12A           30.6798635089      -24.5931767591       19.2772952160  MEMB      62              0.0000000000
      8922        90  DOPC      H12B           30.2888879787      -23.1680234853       20.1944164166  MEMB      62              0.0000000000
      8923        90  DOPC      C13            32.6486052841      -23.5754278338       17.8141874949  MEMB      62              0.0000000000
      8924        90  DOPC      H13A           33.2062644720      -22.9925313249       17.1098282370  MEMB      62              0.0000000000
      8925        90  DOPC      H13B           33.3264772835      -24.0138382549       18.5566118126  MEMB      62              0.0000000000
      8926        90  DOPC      H13C           32.2310085484      -24.4635647529       17.3455647335  MEMB      62              0.0000000000
      8927        90  DOPC      C14            32.2785286522      -21.5699011989       19.1338434677  MEMB      62              0.0000000000
      8928        90  DOPC      H14A           31.5721275230      -20.9397418796       19.6677113833  MEMB      62              0.0000000000
      8929        90  DOPC      H14B           33.0280977976      -21.9112898515       19.8490904203  MEMB      62              0.0000000000
      8930        90  DOPC      H14C           32.7633789978      -20.9738301019       18.3662431440  MEMB      62              0.0000000000
      8931        90  DOPC      C15            30.4841789392      -22.3746489946       17.6914183225  MEMB      62              0.0000000000
      8932        90  DOPC      H15A           30.8307381008      -21.8426277508       16.8163673720  MEMB      62              0.0000000000
      8933        90  DOPC      H15B           29.8173690977      -21.7277028285       18.2639198720  MEMB      62              0.0000000000
      8934        90  DOPC      H15C           29.8692072334      -23.2196582374       17.3760222421  MEMB      62              0.0000000000
      8935        90  DOPC      C11            32.1620522476      -24.1202113822       20.7353569624  MEMB      62              0.0000000000
      8936        90  DOPC      H11A           32.6803636585      -23.2135081546       21.0983373527  MEMB      62              0.0000000000
      8937        90  DOPC      H11B           31.5995521797      -24.5429396459       21.6012710835  MEMB      62              0.0000000000
      8938        90  DOPC      P              32.8241823446      -26.5242672930       19.9826175257  MEMB      62              0.0000000000
      8939        90  DOPC      O13            31.8981788254      -26.9732466732       21.0450410942  MEMB      62              0.0000000000
      8940        90  DOPC      O14            34.0913295815      -27.2724820487       19.9059128879  MEMB      62              0.0000000000
      8941        90  DOPC      O12            33.1794547854      -25.0148488981       20.2587386818  MEMB      62              0.0000000000
      8942        90  DOPC      O11            32.1289915722      -26.3438042505       18.5734770150  MEMB      62              0.0000000000
      8943        90  DOPC      C1             32.1779472283      -27.3877893032       17.6019364132  MEMB      62              0.0000000000
      8944        90  DOPC      HA             31.3058353768      -27.2877003191       16.9178232736  MEMB      62              0.0000000000
      8945        90  DOPC      HB             32.0970363355      -28.4017773805       18.0731451976  MEMB      62              0.0000000000
      8946        90  DOPC      C2             33.4699744488      -27.3427247557       16.7331054893  MEMB      62              0.0000000000
      8947        90  DOPC      HS             34.3380608323      -27.4030051210       17.4313371597  MEMB      62              0.0000000000
      8948        90  DOPC      O21            33.5401684934      -26.1087757693       15.9720311912  MEMB      62              0.0000000000
      8949        90  DOPC      C21            34.5725159370      -26.0440162025       15.1239799958  MEMB      62              0.0000000000
      8950        90  DOPC      O22            35.4679979259      -26.8547621790       15.0233423903  MEMB      62              0.0000000000
      8951        90  DOPC      C22            34.5005212128      -24.7191633599       14.3497523041  MEMB      62              0.0000000000
      8952        90  DOPC      H2R            34.9930066625      -23.9607430611       14.9979700905  MEMB      62              0.0000000000
      8953        90  DOPC      H2S            33.4394128337      -24.4414135036       14.2122752256  MEMB      62              0.0000000000
      8954        90  DOPC      C3             33.4692220860      -28.5982952712       15.8127470007  MEMB      62              0.0000000000
      8955        90  DOPC      HX             33.1514263377      -29.4401251114       16.4592330263  MEMB      62              0.0000000000
      8956        90  DOPC      HY             34.4959329090      -28.8537281909       15.4800561797  MEMB      62              0.0000000000
      8957        90  DOPC      O31            32.6371638355      -28.3853722704       14.6509854073  MEMB      62              0.0000000000
      8958        90  DOPC      C31            31.8462683322      -29.3832433648       14.2953658076  MEMB      62              0.0000000000
      8959        90  DOPC      O32            31.5352767970      -30.3365133416       14.9696029164  MEMB      62              0.0000000000
      8960        90  DOPC      C32            31.4199837353      -29.1849730372       12.8458799751  MEMB      62              0.0000000000
      8961        90  DOPC      H2X            32.2808656741      -28.7705531742       12.2822006759  MEMB      62              0.0000000000
      8962        90  DOPC      H2Y            31.1644156342      -30.1792071507       12.4222061431  MEMB      62              0.0000000000
      8963        90  DOPC      C23            35.2394874847      -24.7645882236       12.9866989817  MEMB      62              0.0000000000
      8964        90  DOPC      H3R            36.2385837395      -25.2424735600       13.1194919714  MEMB      62              0.0000000000
      8965        90  DOPC      H3S            35.4170249397      -23.7191701077       12.6455571525  MEMB      62              0.0000000000
      8966        90  DOPC      C24            34.4444261824      -25.5045526517       11.8981021519  MEMB      62              0.0000000000
      8967        90  DOPC      H4R            33.4613968785      -25.0076687778       11.7451625578  MEMB      62              0.0000000000
      8968        90  DOPC      H4S            34.2443473199      -26.5358163791       12.2698709060  MEMB      62              0.0000000000
      8969        90  DOPC      C25            35.1590671704      -25.6245767044       10.5324038061  MEMB      62              0.0000000000
      8970        90  DOPC      H5R            36.1836505402      -26.0210462501       10.7070321882  MEMB      62              0.0000000000
      8971        90  DOPC      H5S            35.2530952290      -24.6236961917       10.0583783606  MEMB      62              0.0000000000
      8972        90  DOPC      C26            34.4025532612      -26.5898352557        9.5957522813  MEMB      62              0.0000000000
      8973        90  DOPC      H6R            33.4163290061      -26.1486290320        9.3313384747  MEMB      62              0.0000000000
      8974        90  DOPC      H6S            34.2081184518      -27.5169438736       10.1838503812  MEMB      62              0.0000000000
      8975        90  DOPC      C27            35.1319904229      -27.0067133137        8.3029739632  MEMB      62              0.0000000000
      8976        90  DOPC      H7R            36.1919673895      -27.2374324469        8.5526879824  MEMB      62              0.0000000000
      8977        90  DOPC      H7S            35.1365123401      -26.1623263370        7.5778924398  MEMB      62              0.0000000000
      8978        90  DOPC      C28            34.5052603582      -28.2640990516        7.6466095192  MEMB      62              0.0000000000
      8979        90  DOPC      H8R            34.3834350931      -29.0338023981        8.4430132073  MEMB      62              0.0000000000
      8980        90  DOPC      H8S            35.2219009087      -28.6888007011        6.9131012442  MEMB      62              0.0000000000
      8981        90  DOPC      C29            33.1652146473      -27.9729116238        7.0117922222  MEMB      62              0.0000000000
      8982        90  DOPC      H9R            32.4227451692      -27.5904115186        7.7224663490  MEMB      62              0.0000000000
      8983        90  DOPC      C210           32.7809142151      -28.1034611557        5.7260845143  MEMB      62              0.0000000000
      8984        90  DOPC      H10R           31.7554040931      -27.8109099955        5.4542142481  MEMB      62              0.0000000000
      8985        90  DOPC      C211           33.5886646144      -28.5814457555        4.5518745583  MEMB      62              0.0000000000
      8986        90  DOPC      H11R           33.1338710397      -29.4998725494        4.1433834694  MEMB      62              0.0000000000
      8987        90  DOPC      H11S           34.6260780250      -28.8536961696        4.8389777902  MEMB      62              0.0000000000
      8988        90  DOPC      C212           33.6025511937      -27.5767616468        3.3905549998  MEMB      62              0.0000000000
      8989        90  DOPC      H12R           34.3930027577      -27.9222451295        2.6853301146  MEMB      62              0.0000000000
      8990        90  DOPC      H12S           33.9382027066      -26.5787327755        3.7309140957  MEMB      62              0.0000000000
      8991        90  DOPC      C213           32.2680264027      -27.4690103649        2.6034336426  MEMB      62              0.0000000000
      8992        90  DOPC      H13R           31.6010777830      -26.7588587504        3.1192311631  MEMB      62              0.0000000000
      8993        90  DOPC      H13S           31.7276862531      -28.4351109136        2.6008990355  MEMB      62              0.0000000000
      8994        90  DOPC      C214           32.6036320027      -27.0334211749        1.1700209516  MEMB      62              0.0000000000
      8995        90  DOPC      H14R           33.4312791110      -27.7018123219        0.8381714984  MEMB      62              0.0000000000
      8996        90  DOPC      H14S           33.0414398671      -26.0137349918        1.2474697094  MEMB      62              0.0000000000
      8997        90  DOPC      C215           31.6067375586      -27.0091583297       -0.0129042534  MEMB      62              0.0000000000
      8998        90  DOPC      H15R           32.0237486951      -27.7002001210       -0.7798333896  MEMB      62              0.0000000000
      8999        90  DOPC      H15S           31.6333008471      -25.9978781211       -0.4794451680  MEMB      62              0.0000000000
      9000        90  DOPC      C216           30.1621743653      -27.4704367950        0.0788040260  MEMB      62              0.0000000000
      9001        90  DOPC      H16R           29.9154930674      -27.9377422459        1.0419194103  MEMB      62              0.0000000000
      9002        90  DOPC      H16S           30.0760635719      -28.2854302236       -0.6653957514  MEMB      62              0.0000000000
      9003        90  DOPC      C217           29.1947344154      -26.3592111358       -0.3370647499  MEMB      62              0.0000000000
      9004        90  DOPC      H17R           29.5255078090      -25.9110722774       -1.3051201293  MEMB      62              0.0000000000
      9005        90  DOPC      H17S           29.2867453658      -25.5509841207        0.4205984418  MEMB      62              0.0000000000
      9006        90  DOPC      C218           27.7299538400      -26.8017797937       -0.4662359757  MEMB      62              0.0000000000
      9007        90  DOPC      H18R           27.6383763276      -27.8792996731       -0.2231708122  MEMB      62              0.0000000000
      9008        90  DOPC      H18S           27.3624455829      -26.6314975232       -1.5015899052  MEMB      62              0.0000000000
      9009        90  DOPC      H18T           27.0659916501      -26.2438462660        0.2241475022  MEMB      62              0.0000000000
      9010        90  DOPC      C33            30.2040463824      -28.2473260052       12.7603972645  MEMB      62              0.0000000000
      9011        90  DOPC      H3X            30.2907634427      -27.4252473671       13.5080654843  MEMB      62              0.0000000000
      9012        90  DOPC      H3Y            29.3004979490      -28.8384120041       13.0269691476  MEMB      62              0.0000000000
      9013        90  DOPC      C34            30.0280359945      -27.6219773537       11.3726296437  MEMB      62              0.0000000000
      9014        90  DOPC      H4X            28.9689902420      -27.2979517824       11.2627734896  MEMB      62              0.0000000000
      9015        90  DOPC      H4Y            30.2471627856      -28.3680217433       10.5778149240  MEMB      62              0.0000000000
      9016        90  DOPC      C35            30.8810215596      -26.3659661246       11.1912309188  MEMB      62              0.0000000000
      9017        90  DOPC      H5X            31.9042038316      -26.6541499185       10.8731187432  MEMB      62              0.0000000000
      9018        90  DOPC      H5Y            30.9764318991      -25.8527384374       12.1758789293  MEMB      62              0.0000000000
      9019        90  DOPC      C36            30.2649491846      -25.3489531967       10.2194972352  MEMB      62              0.0000000000
      9020        90  DOPC      H6X            29.2665070499      -25.0415530635       10.5951117827  MEMB      62              0.0000000000
      9021        90  DOPC      H6Y            30.9071891048      -24.4440746631       10.2607203897  MEMB      62              0.0000000000
      9022        90  DOPC      C37            30.1288749069      -25.8685418873        8.7767684279  MEMB      62              0.0000000000
      9023        90  DOPC      H7X            30.8763383275      -26.6747687544        8.6205276914  MEMB      62              0.0000000000
      9024        90  DOPC      H7Y            29.1277696996      -26.3400946846        8.6568207421  MEMB      62              0.0000000000
      9025        90  DOPC      C38            30.3285613395      -24.7961805001        7.6829393652  MEMB      62              0.0000000000
      9026        90  DOPC      H8X            29.5605255153      -24.0012613692        7.8026116394  MEMB      62              0.0000000000
      9027        90  DOPC      H8Y            30.1335501440      -25.2853884325        6.7018946215  MEMB      62              0.0000000000
      9028        90  DOPC      C39            31.7160058430      -24.1972338033        7.7433375352  MEMB      62              0.0000000000
      9029        90  DOPC      H9X            32.0003397016      -23.7715789337        8.7164688175  MEMB      62              0.0000000000
      9030        90  DOPC      C310           32.6097395471      -24.0978472502        6.7479587766  MEMB      62              0.0000000000
      9031        90  DOPC      H10X           33.5933686750      -23.6536263055        6.9654310154  MEMB      62              0.0000000000
      9032        90  DOPC      C311           32.4473855575      -24.5551524828        5.3250318368  MEMB      62              0.0000000000
      9033        90  DOPC      H11X           31.5279753823      -25.1554785632        5.1679264196  MEMB      62              0.0000000000
      9034        90  DOPC      H11Y           33.3059221349      -25.2039039312        5.0654359535  MEMB      62              0.0000000000
      9035        90  DOPC      C312           32.4408278653      -23.3217929632        4.4026763956  MEMB      62              0.0000000000
      9036        90  DOPC      H12X           33.3674847717      -22.7548063705        4.6080276032  MEMB      62              0.0000000000
      9037        90  DOPC      H12Y           31.5717162451      -22.6709595854        4.6418155869  MEMB      62              0.0000000000
      9038        90  DOPC      C313           32.4508094613      -23.6241362189        2.8984411051  MEMB      62              0.0000000000
      9039        90  DOPC      H13X           32.6477409381      -22.6984310058        2.3190034688  MEMB      62              0.0000000000
      9040        90  DOPC      H13Y           33.2915595190      -24.3272402771        2.6997334106  MEMB      62              0.0000000000
      9041        90  DOPC      C314           31.1365871459      -24.2330655020        2.4172080662  MEMB      62              0.0000000000
      9042        90  DOPC      H14X           31.2988280608      -24.8273551083        1.4984925622  MEMB      62              0.0000000000
      9043        90  DOPC      H14Y           30.7797352037      -24.9227899185        3.2114549582  MEMB      62              0.0000000000
      9044        90  DOPC      C315           29.9985382778      -23.2531918593        2.1320229995  MEMB      62              0.0000000000
      9045        90  DOPC      H15X           29.9731952937      -22.4349936482        2.8804059174  MEMB      62              0.0000000000
      9046        90  DOPC      H15Y           29.0758394758      -23.8589576885        2.2548877671  MEMB      62              0.0000000000
      9047        90  DOPC      C316           29.9586906806      -22.7134839417        0.6953332204  MEMB      62              0.0000000000
      9048        90  DOPC      H16X           30.6081890509      -21.8162250974        0.6323757438  MEMB      62              0.0000000000
      9049        90  DOPC      H16Y           30.3717953155      -23.4726893588       -0.0067546992  MEMB      62              0.0000000000
      9050        90  DOPC      C317           28.5196283495      -22.3721596602        0.2638273892  MEMB      62              0.0000000000
      9051        90  DOPC      H17X           28.0023714837      -21.9038363591        1.1215311830  MEMB      62              0.0000000000
      9052        90  DOPC      H17Y           28.5146459544      -21.6309016974       -0.5592920711  MEMB      62              0.0000000000
      9053        90  DOPC      C318           27.7212566234      -23.5833091106       -0.2027245480  MEMB      62              0.0000000000
      9054        90  DOPC      H18X           27.5523906805      -24.2652101425        0.6619567934  MEMB      62              0.0000000000
      9055        90  DOPC      H18Y           26.7399480562      -23.3271880596       -0.6401215091  MEMB      62              0.0000000000
      9056        90  DOPC      H18Z           28.2935189994      -24.1145144492       -0.9893468094  MEMB      62              0.0000000000
      9057        91  DOPC      N             -22.7707912540       33.0516012964       19.6127579946  MEMB      63              0.0000000000
      9058        91  DOPC      C12           -23.1512950140       34.4438345626       20.1173615835  MEMB      63              0.0000000000
      9059        91  DOPC      H12A          -22.7628789936       35.1991612534       19.4460373531  MEMB      63              0.0000000000
      9060        91  DOPC      H12B          -22.7085466966       34.6361358232       21.0945621755  MEMB      63              0.0000000000
      9061        91  DOPC      C13           -21.3177910466       32.8260664935       19.8042891028  MEMB      63              0.0000000000
      9062        91  DOPC      H13A          -21.0186014840       33.1532061830       20.7941504211  MEMB      63              0.0000000000
      9063        91  DOPC      H13B          -21.0481412194       31.7849366825       19.7008238938  MEMB      63              0.0000000000
      9064        91  DOPC      H13C          -20.7562069674       33.4102113939       19.0680343610  MEMB      63              0.0000000000
      9065        91  DOPC      C14           -23.1316209811       32.9837681369       18.1585767110  MEMB      63              0.0000000000
      9066        91  DOPC      H14A          -24.1466071166       33.3816265958       18.0679508138  MEMB      63              0.0000000000
      9067        91  DOPC      H14B          -22.5048919754       33.6442834140       17.5583521370  MEMB      63              0.0000000000
      9068        91  DOPC      H14C          -23.1056272317       31.9842822337       17.7556983178  MEMB      63              0.0000000000
      9069        91  DOPC      C15           -23.5799677584       32.0605091450       20.3839683412  MEMB      63              0.0000000000
      9070        91  DOPC      H15A          -23.4866569709       32.2373598275       21.4502015248  MEMB      63              0.0000000000
      9071        91  DOPC      H15B          -23.3589919600       31.0250508811       20.1528175795  MEMB      63              0.0000000000
      9072        91  DOPC      H15C          -24.6159709876       32.2643080063       20.1099294793  MEMB      63              0.0000000000
      9073        91  DOPC      C11           -24.6618061666       34.7262499049       20.3017498456  MEMB      63              0.0000000000
      9074        91  DOPC      H11A          -25.0889548384       34.0908096740       21.1132066736  MEMB      63              0.0000000000
      9075        91  DOPC      H11B          -24.7231330209       35.7725819472       20.7055319478  MEMB      63              0.0000000000
      9076        91  DOPC      P             -26.2833887799       35.7254607774       18.5727379539  MEMB      63              0.0000000000
      9077        91  DOPC      O13           -25.4983673299       36.6062883580       17.6831911698  MEMB      63              0.0000000000
      9078        91  DOPC      O14           -26.9148791842       36.4100733686       19.7257019353  MEMB      63              0.0000000000
      9079        91  DOPC      O12           -25.3795363025       34.5249674955       19.0772590641  MEMB      63              0.0000000000
      9080        91  DOPC      O11           -27.4375814267       34.9834931759       17.7707773847  MEMB      63              0.0000000000
      9081        91  DOPC      C1            -27.3367900212       33.6909717327       17.1611205361  MEMB      63              0.0000000000
      9082        91  DOPC      HA            -28.3176526044       33.4613051759       16.6865431683  MEMB      63              0.0000000000
      9083        91  DOPC      HB            -27.1473497222       32.8949486959       17.9183772342  MEMB      63              0.0000000000
      9084        91  DOPC      C2            -26.2586546368       33.5956296979       16.0351232052  MEMB      63              0.0000000000
      9085        91  DOPC      HS            -25.2868712449       33.6115188947       16.5753494397  MEMB      63              0.0000000000
      9086        91  DOPC      O21           -26.3950585514       34.7085707661       15.1330464883  MEMB      63              0.0000000000
      9087        91  DOPC      C21           -25.2348826276       35.1227842759       14.6440982527  MEMB      63              0.0000000000
      9088        91  DOPC      O22           -24.1323860857       34.7220586533       14.9800125212  MEMB      63              0.0000000000
      9089        91  DOPC      C22           -25.4647295649       36.0577758244       13.4548812561  MEMB      63              0.0000000000
      9090        91  DOPC      H2R           -25.5480186582       37.0921767395       13.8431956312  MEMB      63              0.0000000000
      9091        91  DOPC      H2S           -26.4232928394       35.7874892433       12.9671579834  MEMB      63              0.0000000000
      9092        91  DOPC      C3            -26.3332461442       32.2576664023       15.2252093696  MEMB      63              0.0000000000
      9093        91  DOPC      HX            -27.3213091996       32.2130666759       14.7153983590  MEMB      63              0.0000000000
      9094        91  DOPC      HY            -26.3114151842       31.4388860585       15.9835972387  MEMB      63              0.0000000000
      9095        91  DOPC      O31           -25.2779103455       32.1642436744       14.2251286449  MEMB      63              0.0000000000
      9096        91  DOPC      C31           -24.6267620877       30.9985763443       14.1868850652  MEMB      63              0.0000000000
      9097        91  DOPC      O32           -24.9189582298       30.0295471314       14.8535470958  MEMB      63              0.0000000000
      9098        91  DOPC      C32           -23.3797110352       31.0598742065       13.2803779702  MEMB      63              0.0000000000
      9099        91  DOPC      H2X           -22.6107827534       31.5814234099       13.8886946190  MEMB      63              0.0000000000
      9100        91  DOPC      H2Y           -23.0338240250       30.0160688326       13.1211229724  MEMB      63              0.0000000000
      9101        91  DOPC      C23           -24.2826515871       35.9271797752       12.4545869965  MEMB      63              0.0000000000
      9102        91  DOPC      H3R           -24.2409046831       34.8791063043       12.0852821673  MEMB      63              0.0000000000
      9103        91  DOPC      H3S           -23.3262848358       36.1251800982       12.9933746415  MEMB      63              0.0000000000
      9104        91  DOPC      C24           -24.3337089089       36.8651335806       11.2368522312  MEMB      63              0.0000000000
      9105        91  DOPC      H4R           -23.4612203421       36.6394073730       10.5810930589  MEMB      63              0.0000000000
      9106        91  DOPC      H4S           -24.2298567558       37.9150451082       11.5933393071  MEMB      63              0.0000000000
      9107        91  DOPC      C25           -25.6152121435       36.7542640723       10.3969659631  MEMB      63              0.0000000000
      9108        91  DOPC      H5R           -25.5862180166       37.5426733674        9.6082481151  MEMB      63              0.0000000000
      9109        91  DOPC      H5S           -26.4797911323       36.9657866349       11.0643437164  MEMB      63              0.0000000000
      9110        91  DOPC      C26           -25.8046724576       35.3909405179        9.7153993148  MEMB      63              0.0000000000
      9111        91  DOPC      H6R           -25.9071270379       34.5942509771       10.4843577716  MEMB      63              0.0000000000
      9112        91  DOPC      H6S           -24.8805137874       35.1755519288        9.1349497001  MEMB      63              0.0000000000
      9113        91  DOPC      C27           -27.0060287972       35.3158967777        8.7538974357  MEMB      63              0.0000000000
      9114        91  DOPC      H7R           -26.9999630486       36.2094248385        8.0906882335  MEMB      63              0.0000000000
      9115        91  DOPC      H7S           -27.9547350204       35.3212152991        9.3382884380  MEMB      63              0.0000000000
      9116        91  DOPC      C28           -26.9483351629       34.0511309740        7.8894005332  MEMB      63              0.0000000000
      9117        91  DOPC      H8R           -26.9435693476       33.1826228441        8.5875034328  MEMB      63              0.0000000000
      9118        91  DOPC      H8S           -25.9736959845       34.0410173473        7.3555124471  MEMB      63              0.0000000000
      9119        91  DOPC      C29           -28.0496193164       33.9212895737        6.8710578235  MEMB      63              0.0000000000
      9120        91  DOPC      H9R           -28.7581399070       34.7596497804        6.7836224418  MEMB      63              0.0000000000
      9121        91  DOPC      C210          -28.1773241112       32.8437412648        6.0799307687  MEMB      63              0.0000000000
      9122        91  DOPC      H10R          -28.9916142835       32.7971589565        5.3395800819  MEMB      63              0.0000000000
      9123        91  DOPC      C211          -27.2341120099       31.6680977442        6.1380298954  MEMB      63              0.0000000000
      9124        91  DOPC      H11R          -27.7590441923       30.6997311579        6.0517089535  MEMB      63              0.0000000000
      9125        91  DOPC      H11S          -26.7423058942       31.6185118265        7.1342062696  MEMB      63              0.0000000000
      9126        91  DOPC      C212          -26.0612118776       31.7620016830        5.1553023193  MEMB      63              0.0000000000
      9127        91  DOPC      H12R          -25.1700889173       31.4377939772        5.7326172800  MEMB      63              0.0000000000
      9128        91  DOPC      H12S          -25.8589249624       32.8087909967        4.8607642816  MEMB      63              0.0000000000
      9129        91  DOPC      C213          -26.1704843139       30.8871071446        3.9053497775  MEMB      63              0.0000000000
      9130        91  DOPC      H13R          -26.8279120710       31.3515204881        3.1470361677  MEMB      63              0.0000000000
      9131        91  DOPC      H13S          -26.6808106112       29.9480554400        4.1783458724  MEMB      63              0.0000000000
      9132        91  DOPC      C214          -24.8006471353       30.5837659048        3.2689120161  MEMB      63              0.0000000000
      9133        91  DOPC      H14R          -24.9827192563       30.3585249681        2.2028496094  MEMB      63              0.0000000000
      9134        91  DOPC      H14S          -24.3798198598       29.6495712813        3.6904736732  MEMB      63              0.0000000000
      9135        91  DOPC      C215          -23.7512384121       31.7039382798        3.4309843725  MEMB      63              0.0000000000
      9136        91  DOPC      H15R          -23.5791914740       31.9302287185        4.5051584129  MEMB      63              0.0000000000
      9137        91  DOPC      H15S          -24.1299242921       32.6385963368        2.9633017849  MEMB      63              0.0000000000
      9138        91  DOPC      C216          -22.3743090207       31.3619443454        2.8408120349  MEMB      63              0.0000000000
      9139        91  DOPC      H16R          -22.4853641171       31.1854845084        1.7506013253  MEMB      63              0.0000000000
      9140        91  DOPC      H16S          -21.9969308690       30.4171370374        3.2920041361  MEMB      63              0.0000000000
      9141        91  DOPC      C217          -21.3544957250       32.4896032618        3.0767478333  MEMB      63              0.0000000000
      9142        91  DOPC      H17R          -20.8304856637       32.3049078180        4.0412226788  MEMB      63              0.0000000000
      9143        91  DOPC      H17S          -21.9095462954       33.4518846484        3.1810460383  MEMB      63              0.0000000000
      9144        91  DOPC      C218          -20.3345243337       32.6577666496        1.9487811422  MEMB      63              0.0000000000
      9145        91  DOPC      H18R          -20.8559987540       32.9145213965        1.0007977832  MEMB      63              0.0000000000
      9146        91  DOPC      H18S          -19.7662341246       31.7166681718        1.7908551855  MEMB      63              0.0000000000
      9147        91  DOPC      H18T          -19.6128900447       33.4720778383        2.1750485259  MEMB      63              0.0000000000
      9148        91  DOPC      C33           -23.4837254560       31.7991587890       11.9183215688  MEMB      63              0.0000000000
      9149        91  DOPC      H3X           -22.4435015611       32.0909977127       11.6356607495  MEMB      63              0.0000000000
      9150        91  DOPC      H3Y           -24.0654933808       32.7382374423       12.0206313055  MEMB      63              0.0000000000
      9151        91  DOPC      C34           -24.0446125885       30.9484124678       10.7664048598  MEMB      63              0.0000000000
      9152        91  DOPC      H4X           -25.1191286432       30.7493372924       10.9739569448  MEMB      63              0.0000000000
      9153        91  DOPC      H4Y           -23.5184739095       29.9680081685       10.7259307458  MEMB      63              0.0000000000
      9154        91  DOPC      C35           -23.9413162393       31.6346260938        9.3871257831  MEMB      63              0.0000000000
      9155        91  DOPC      H5X           -24.3171331250       32.6764523873        9.4778042555  MEMB      63              0.0000000000
      9156        91  DOPC      H5Y           -24.6145761306       31.1060350697        8.6749895279  MEMB      63              0.0000000000
      9157        91  DOPC      C36           -22.5262335923       31.6404358123        8.7816503373  MEMB      63              0.0000000000
      9158        91  DOPC      H6X           -21.8217358629       32.1602708966        9.4677198981  MEMB      63              0.0000000000
      9159        91  DOPC      H6Y           -22.1827607313       30.5865794110        8.6806076254  MEMB      63              0.0000000000
      9160        91  DOPC      C37           -22.4309723869       32.3064833734        7.3918980073  MEMB      63              0.0000000000
      9161        91  DOPC      H7X           -21.3859104926       32.1782101865        7.0266967714  MEMB      63              0.0000000000
      9162        91  DOPC      H7Y           -23.0976321247       31.7682552371        6.6833374943  MEMB      63              0.0000000000
      9163        91  DOPC      C38           -22.7845578080       33.8111362947        7.3971626573  MEMB      63              0.0000000000
      9164        91  DOPC      H8X           -22.2520136006       34.2783593927        8.2552607694  MEMB      63              0.0000000000
      9165        91  DOPC      H8Y           -23.8718272357       33.9028685715        7.5987750154  MEMB      63              0.0000000000
      9166        91  DOPC      C39           -22.4037831131       34.5335155354        6.1249719257  MEMB      63              0.0000000000
      9167        91  DOPC      H9X           -21.5592129520       34.0817918743        5.5818814895  MEMB      63              0.0000000000
      9168        91  DOPC      C310          -22.9993561090       35.6178125583        5.5832944719  MEMB      63              0.0000000000
      9169        91  DOPC      H10X          -22.5999452565       36.0111569844        4.6354015959  MEMB      63              0.0000000000
      9170        91  DOPC      C311          -24.1956051645       36.3875631161        6.0996985292  MEMB      63              0.0000000000
      9171        91  DOPC      H11X          -23.8526958187       37.3487898640        6.5484259272  MEMB      63              0.0000000000
      9172        91  DOPC      H11Y          -24.7360668593       35.8380978481        6.8994052999  MEMB      63              0.0000000000
      9173        91  DOPC      C312          -25.1896893207       36.7279507247        4.9611290864  MEMB      63              0.0000000000
      9174        91  DOPC      H12X          -24.6528286978       37.3272591706        4.1967975986  MEMB      63              0.0000000000
      9175        91  DOPC      H12Y          -26.0057925070       37.3700022455        5.3621564894  MEMB      63              0.0000000000
      9176        91  DOPC      C313          -25.8144477748       35.5036477103        4.2652773701  MEMB      63              0.0000000000
      9177        91  DOPC      H13X          -25.1252717401       34.6394738285        4.3761193203  MEMB      63              0.0000000000
      9178        91  DOPC      H13Y          -26.7633734873       35.2438846798        4.7811564347  MEMB      63              0.0000000000
      9179        91  DOPC      C314          -26.0614351028       35.6884985766        2.7556564950  MEMB      63              0.0000000000
      9180        91  DOPC      H14X          -26.7566064720       36.5417766382        2.5950659329  MEMB      63              0.0000000000
      9181        91  DOPC      H14Y          -25.0914056044       35.9457608569        2.2704197780  MEMB      63              0.0000000000
      9182        91  DOPC      C315          -26.6160625089       34.4311408160        2.0499379781  MEMB      63              0.0000000000
      9183        91  DOPC      H15X          -25.8304971793       33.6432799434        2.0415632426  MEMB      63              0.0000000000
      9184        91  DOPC      H15Y          -26.8457061517       34.6827203839        0.9923308395  MEMB      63              0.0000000000
      9185        91  DOPC      C316          -27.8687150856       33.8253257589        2.6956278414  MEMB      63              0.0000000000
      9186        91  DOPC      H16X          -27.5559215004       33.2507632335        3.5825698947  MEMB      63              0.0000000000
      9187        91  DOPC      H16Y          -28.5456084454       34.6072296809        3.0850619615  MEMB      63              0.0000000000
      9188        91  DOPC      C317          -28.6583927671       32.8966559564        1.7693455320  MEMB      63              0.0000000000
      9189        91  DOPC      H17X          -28.9797100585       33.4433781496        0.8550998113  MEMB      63              0.0000000000
      9190        91  DOPC      H17Y          -27.9913005899       32.0715633275        1.4362918978  MEMB      63              0.0000000000
      9191        91  DOPC      C318          -29.8767439158       32.3267588243        2.4942672125  MEMB      63              0.0000000000
      9192        91  DOPC      H18X          -30.4285372346       31.5959230189        1.8706157551  MEMB      63              0.0000000000
      9193        91  DOPC      H18Y          -29.5625795115       31.8079119378        3.4221274015  MEMB      63              0.0000000000
      9194        91  DOPC      H18Z          -30.5686697304       33.1386853206        2.7858313418  MEMB      63              0.0000000000
      9195        92  DOPC      N             -31.7268060582       29.8953794661       21.0861466981  MEMB      64              0.0000000000
      9196        92  DOPC      C12           -30.9850365604       29.9925992070       19.7531368803  MEMB      64              0.0000000000
      9197        92  DOPC      H12A          -31.3469861875       29.1931783683       19.1078811168  MEMB      64              0.0000000000
      9198        92  DOPC      H12B          -29.9238497059       29.8590206508       19.9169058986  MEMB      64              0.0000000000
      9199        92  DOPC      C13           -33.1854646388       29.6525065640       20.8298555283  MEMB      64              0.0000000000
      9200        92  DOPC      H13A          -33.7956811240       29.6776430786       21.7096087074  MEMB      64              0.0000000000
      9201        92  DOPC      H13B          -33.5279557800       30.4357631922       20.1462164858  MEMB      64              0.0000000000
      9202        92  DOPC      H13C          -33.3498199556       28.7546883710       20.2388354925  MEMB      64              0.0000000000
      9203        92  DOPC      C14           -31.6255424930       31.2028672205       21.7809792360  MEMB      64              0.0000000000
      9204        92  DOPC      H14A          -32.0596452094       31.9646026220       21.1296675358  MEMB      64              0.0000000000
      9205        92  DOPC      H14B          -32.1844331437       31.1944515713       22.7013456898  MEMB      64              0.0000000000
      9206        92  DOPC      H14C          -30.5912167969       31.4920122583       21.9499023069  MEMB      64              0.0000000000
      9207        92  DOPC      C15           -31.1949601440       28.7720188977       21.9106799027  MEMB      64              0.0000000000
      9208        92  DOPC      H15A          -30.1364114891       28.8786649354       22.1328907871  MEMB      64              0.0000000000
      9209        92  DOPC      H15B          -31.3468867746       27.8377289598       21.3907835576  MEMB      64              0.0000000000
      9210        92  DOPC      H15C          -31.7191994299       28.7179033558       22.8546307968  MEMB      64              0.0000000000
      9211        92  DOPC      C11           -31.1572323225       31.2880004857       18.9210769057  MEMB      64              0.0000000000
      9212        92  DOPC      H11A          -30.7493009038       32.1658340176       19.4517770902  MEMB      64              0.0000000000
      9213        92  DOPC      H11B          -30.5803944480       31.1986128760       17.9666238589  MEMB      64              0.0000000000
      9214        92  DOPC      P             -33.2865736815       30.6950436925       17.5953790622  MEMB      64              0.0000000000
      9215        92  DOPC      O13           -34.6031552768       31.3486545062       17.4721958931  MEMB      64              0.0000000000
      9216        92  DOPC      O14           -33.2190260470       29.2664684374       18.0051680398  MEMB      64              0.0000000000
      9217        92  DOPC      O12           -32.5228342110       31.5550680300       18.6852814816  MEMB      64              0.0000000000
      9218        92  DOPC      O11           -32.4418589440       30.9052277210       16.2829373922  MEMB      64              0.0000000000
      9219        92  DOPC      C1            -32.1364337455       32.2191051049       15.8129926216  MEMB      64              0.0000000000
      9220        92  DOPC      HA            -31.0964047697       32.4798258977       16.1125275867  MEMB      64              0.0000000000
      9221        92  DOPC      HB            -32.8084091990       32.9841001889       16.2647860649  MEMB      64              0.0000000000
      9222        92  DOPC      C2            -32.2345362960       32.3757244705       14.2592375676  MEMB      64              0.0000000000
      9223        92  DOPC      HS            -32.2077553374       33.4661473031       14.0835840161  MEMB      64              0.0000000000
      9224        92  DOPC      O21           -33.4699699984       31.8479136836       13.7716390927  MEMB      64              0.0000000000
      9225        92  DOPC      C21           -33.9532133543       32.2645051567       12.6177547255  MEMB      64              0.0000000000
      9226        92  DOPC      O22           -33.3294266474       32.6523227881       11.6474414539  MEMB      64              0.0000000000
      9227        92  DOPC      C22           -35.4672228001       32.2398870287       12.7650020836  MEMB      64              0.0000000000
      9228        92  DOPC      H2R           -35.9330840814       32.5996168759       11.8320541975  MEMB      64              0.0000000000
      9229        92  DOPC      H2S           -35.7014835422       32.9553966733       13.5846180491  MEMB      64              0.0000000000
      9230        92  DOPC      C3            -31.0343091461       31.7043632829       13.5317817694  MEMB      64              0.0000000000
      9231        92  DOPC      HX            -30.0953077940       32.1403422556       13.9481224007  MEMB      64              0.0000000000
      9232        92  DOPC      HY            -31.0697747884       31.9715513679       12.4574891825  MEMB      64              0.0000000000
      9233        92  DOPC      O31           -31.0638579042       30.2751851189       13.6050570622  MEMB      64              0.0000000000
      9234        92  DOPC      C31           -30.4709645828       29.7341500222       14.6515564532  MEMB      64              0.0000000000
      9235        92  DOPC      O32           -29.7930133705       30.3212493027       15.4763521210  MEMB      64              0.0000000000
      9236        92  DOPC      C32           -30.5836240491       28.2345239448       14.5216639612  MEMB      64              0.0000000000
      9237        92  DOPC      H2X           -31.1080943184       27.8215946901       15.4072345408  MEMB      64              0.0000000000
      9238        92  DOPC      H2Y           -31.1694493700       27.9825480985       13.6109022384  MEMB      64              0.0000000000
      9239        92  DOPC      C23           -36.0166824973       30.8587833929       13.1822235826  MEMB      64              0.0000000000
      9240        92  DOPC      H3R           -36.8940838055       31.0121122292       13.8506681596  MEMB      64              0.0000000000
      9241        92  DOPC      H3S           -35.2696898975       30.3074941109       13.7952561959  MEMB      64              0.0000000000
      9242        92  DOPC      C24           -36.4536074971       29.9704332063       12.0161486804  MEMB      64              0.0000000000
      9243        92  DOPC      H4R           -36.9968859034       30.5530154340       11.2428728824  MEMB      64              0.0000000000
      9244        92  DOPC      H4S           -37.1522152148       29.1998089646       12.4076312088  MEMB      64              0.0000000000
      9245        92  DOPC      C25           -35.2974659840       29.1841691368       11.4434360315  MEMB      64              0.0000000000
      9246        92  DOPC      H5R           -35.5550741282       28.0990694870       11.4076648073  MEMB      64              0.0000000000
      9247        92  DOPC      H5S           -34.4194397624       29.2884128956       12.1233293751  MEMB      64              0.0000000000
      9248        92  DOPC      C26           -34.9238675072       29.6513294838       10.0511852828  MEMB      64              0.0000000000
      9249        92  DOPC      H6R           -35.0087044472       30.7587028579        9.9698311360  MEMB      64              0.0000000000
      9250        92  DOPC      H6S           -35.6413720361       29.2184844487        9.3281879674  MEMB      64              0.0000000000
      9251        92  DOPC      C27           -33.4894410209       29.2472606898        9.7390948295  MEMB      64              0.0000000000
      9252        92  DOPC      H7R           -32.8119515793       29.9600560596       10.2658128661  MEMB      64              0.0000000000
      9253        92  DOPC      H7S           -33.3527003491       29.3830628922        8.6480267081  MEMB      64              0.0000000000
      9254        92  DOPC      C28           -33.1380223883       27.8056354075       10.1527876919  MEMB      64              0.0000000000
      9255        92  DOPC      H8R           -33.8028499744       27.1058595320        9.6012954336  MEMB      64              0.0000000000
      9256        92  DOPC      H8S           -33.3226221507       27.6380666240       11.2335293022  MEMB      64              0.0000000000
      9257        92  DOPC      C29           -31.6889042834       27.5283020522        9.8809212998  MEMB      64              0.0000000000
      9258        92  DOPC      H9R           -31.0240428828       27.5636678880       10.7560763809  MEMB      64              0.0000000000
      9259        92  DOPC      C210          -31.1774939580       27.2617268563        8.6715059176  MEMB      64              0.0000000000
      9260        92  DOPC      H10R          -30.0963539164       27.0941518920        8.5605430099  MEMB      64              0.0000000000
      9261        92  DOPC      C211          -31.9671393802       27.1987631331        7.4002784429  MEMB      64              0.0000000000
      9262        92  DOPC      H11R          -33.0630010896       27.1082251812        7.5739669970  MEMB      64              0.0000000000
      9263        92  DOPC      H11S          -31.6668396913       26.3235463985        6.7858769780  MEMB      64              0.0000000000
      9264        92  DOPC      C212          -31.6903829727       28.4987350864        6.6464845956  MEMB      64              0.0000000000
      9265        92  DOPC      H12R          -31.8107884929       29.3844846347        7.2973219000  MEMB      64              0.0000000000
      9266        92  DOPC      H12S          -32.4266086658       28.5922079772        5.8400627258  MEMB      64              0.0000000000
      9267        92  DOPC      C213          -30.3098389288       28.5144237710        6.0251536109  MEMB      64              0.0000000000
      9268        92  DOPC      H13R          -30.1607700503       27.4737980415        5.6714345835  MEMB      64              0.0000000000
      9269        92  DOPC      H13S          -29.5847351438       28.7414744306        6.8420634174  MEMB      64              0.0000000000
      9270        92  DOPC      C214          -30.0238641545       29.4699270341        4.8541250366  MEMB      64              0.0000000000
      9271        92  DOPC      H14R          -28.9259066046       29.6453145039        4.8455390364  MEMB      64              0.0000000000
      9272        92  DOPC      H14S          -30.4975346398       30.4580078727        5.0204272800  MEMB      64              0.0000000000
      9273        92  DOPC      C215          -30.3276385480       28.9310434294        3.4455803332  MEMB      64              0.0000000000
      9274        92  DOPC      H15R          -31.1140036920       29.6019437909        3.0603572486  MEMB      64              0.0000000000
      9275        92  DOPC      H15S          -30.7282766214       27.8961372386        3.4726550931  MEMB      64              0.0000000000
      9276        92  DOPC      C216          -29.1184394728       29.0365214218        2.4955837470  MEMB      64              0.0000000000
      9277        92  DOPC      H16R          -28.2831407372       28.3962901525        2.8255945845  MEMB      64              0.0000000000
      9278        92  DOPC      H16S          -28.6934752220       30.0517310400        2.5961646480  MEMB      64              0.0000000000
      9279        92  DOPC      C217          -29.4045307284       28.8200754894        1.0013165946  MEMB      64              0.0000000000
      9280        92  DOPC      H17R          -30.4368846354       29.1442159971        0.7493657522  MEMB      64              0.0000000000
      9281        92  DOPC      H17S          -29.3434139423       27.7402414360        0.7406334593  MEMB      64              0.0000000000
      9282        92  DOPC      C218          -28.4181957980       29.6279148641        0.1539581658  MEMB      64              0.0000000000
      9283        92  DOPC      H18R          -27.5698444455       29.9559799463        0.7899960083  MEMB      64              0.0000000000
      9284        92  DOPC      H18S          -28.9069763266       30.5343000256       -0.2621540142  MEMB      64              0.0000000000
      9285        92  DOPC      H18T          -27.9847082068       29.0391112705       -0.6769597106  MEMB      64              0.0000000000
      9286        92  DOPC      C33           -29.1620219997       27.6643205880       14.4162764344  MEMB      64              0.0000000000
      9287        92  DOPC      H3X           -29.3126232572       26.6592573557       13.9781651729  MEMB      64              0.0000000000
      9288        92  DOPC      H3Y           -28.7026970518       27.5465903112       15.4247950014  MEMB      64              0.0000000000
      9289        92  DOPC      C34           -28.1846176216       28.4558586554       13.5278762254  MEMB      64              0.0000000000
      9290        92  DOPC      H4X           -27.1954203020       27.9415043534       13.5458484551  MEMB      64              0.0000000000
      9291        92  DOPC      H4Y           -28.0040780505       29.4800576518       13.9241988686  MEMB      64              0.0000000000
      9292        92  DOPC      C35           -28.6796915432       28.5459837852       12.0899051816  MEMB      64              0.0000000000
      9293        92  DOPC      H5X           -29.5407824980       29.2451744874       12.0087470713  MEMB      64              0.0000000000
      9294        92  DOPC      H5Y           -29.0615037468       27.5484213964       11.8014788190  MEMB      64              0.0000000000
      9295        92  DOPC      C36           -27.5849495624       28.9501060609       11.1036734110  MEMB      64              0.0000000000
      9296        92  DOPC      H6X           -27.0889061264       29.8814567184       11.4537096826  MEMB      64              0.0000000000
      9297        92  DOPC      H6Y           -26.8057107800       28.1543069378       11.0863102327  MEMB      64              0.0000000000
      9298        92  DOPC      C37           -28.1871566569       29.1389484770        9.7074982919  MEMB      64              0.0000000000
      9299        92  DOPC      H7X           -27.6720843391       28.4711869731        8.9830101403  MEMB      64              0.0000000000
      9300        92  DOPC      H7Y           -29.2532727239       28.8271818372        9.7406399361  MEMB      64              0.0000000000
      9301        92  DOPC      C38           -28.1697850165       30.5862606853        9.1918120457  MEMB      64              0.0000000000
      9302        92  DOPC      H8X           -28.6155108634       30.5605321256        8.1726484065  MEMB      64              0.0000000000
      9303        92  DOPC      H8Y           -27.1120272845       30.9159408233        9.0908495101  MEMB      64              0.0000000000
      9304        92  DOPC      C39           -28.9417186362       31.5083535623       10.1021161408  MEMB      64              0.0000000000
      9305        92  DOPC      H9X           -28.5781739205       31.5193418745       11.1417882060  MEMB      64              0.0000000000
      9306        92  DOPC      C310          -29.9630545791       32.3235896960        9.7736253035  MEMB      64              0.0000000000
      9307        92  DOPC      H10X          -30.4077214735       32.9310502329       10.5679401430  MEMB      64              0.0000000000
      9308        92  DOPC      C311          -30.6049529268       32.5440016817        8.4234825805  MEMB      64              0.0000000000
      9309        92  DOPC      H11X          -30.0765312725       31.9874161783        7.6262108444  MEMB      64              0.0000000000
      9310        92  DOPC      H11Y          -30.4911612517       33.6283852342        8.1978013689  MEMB      64              0.0000000000
      9311        92  DOPC      C312          -32.1039614360       32.2083790205        8.2560880056  MEMB      64              0.0000000000
      9312        92  DOPC      H12X          -32.6388610447       32.4653838846        9.1991098999  MEMB      64              0.0000000000
      9313        92  DOPC      H12Y          -32.2521529890       31.1284430857        8.1209747588  MEMB      64              0.0000000000
      9314        92  DOPC      C313          -32.7686412285       33.0131229218        7.1226088774  MEMB      64              0.0000000000
      9315        92  DOPC      H13X          -33.8438853676       33.1443761964        7.3561257697  MEMB      64              0.0000000000
      9316        92  DOPC      H13Y          -32.2838451827       34.0076788931        7.1061745132  MEMB      64              0.0000000000
      9317        92  DOPC      C314          -32.6510149294       32.5282773814        5.6743478916  MEMB      64              0.0000000000
      9318        92  DOPC      H14X          -33.1070438872       33.3170221174        5.0334475595  MEMB      64              0.0000000000
      9319        92  DOPC      H14Y          -31.5766644525       32.4593626255        5.3920662775  MEMB      64              0.0000000000
      9320        92  DOPC      C315          -33.3495007548       31.2043197629        5.3409742324  MEMB      64              0.0000000000
      9321        92  DOPC      H15X          -34.2872777185       31.0560367802        5.9135024586  MEMB      64              0.0000000000
      9322        92  DOPC      H15Y          -32.6147674869       30.4655203350        5.6604126166  MEMB      64              0.0000000000
      9323        92  DOPC      C316          -33.5523550356       31.0958227681        3.8238865904  MEMB      64              0.0000000000
      9324        92  DOPC      H16X          -34.3394110347       31.8111082265        3.5449163875  MEMB      64              0.0000000000
      9325        92  DOPC      H16Y          -32.5521687123       31.3629849127        3.4142372607  MEMB      64              0.0000000000
      9326        92  DOPC      C317          -33.8630287196       29.7784664514        3.1192353932  MEMB      64              0.0000000000
      9327        92  DOPC      H17X          -33.2528133700       29.0592976350        3.6676549104  MEMB      64              0.0000000000
      9328        92  DOPC      H17Y          -34.9380409139       29.5104521333        3.2041481369  MEMB      64              0.0000000000
      9329        92  DOPC      C318          -33.4125882802       29.7096473848        1.6463237248  MEMB      64              0.0000000000
      9330        92  DOPC      H18X          -33.7866989220       30.5832089316        1.0760465200  MEMB      64              0.0000000000
      9331        92  DOPC      H18Y          -32.3140100827       29.7219152421        1.5543816566  MEMB      64              0.0000000000
      9332        92  DOPC      H18Z          -33.7660623212       28.7743458871        1.1622945791  MEMB      64              0.0000000000
      9333        93  DOPC      N             -32.4008950441      -31.9159461256       19.9689621499  MEMB      65              0.0000000000
      9334        93  DOPC      C12           -32.2018076851      -31.4550798004       18.5161145411  MEMB      65              0.0000000000
      9335        93  DOPC      H12A          -32.5761300254      -32.1998675915       17.8241278493  MEMB      65              0.0000000000
      9336        93  DOPC      H12B          -31.1334790281      -31.4093353123       18.3103618904  MEMB      65              0.0000000000
      9337        93  DOPC      C13           -31.7042946393      -33.2076967450       20.2478471265  MEMB      65              0.0000000000
      9338        93  DOPC      H13A          -32.3210021761      -34.0575410386       19.9832040465  MEMB      65              0.0000000000
      9339        93  DOPC      H13B          -30.7441680079      -33.2785581560       19.7392162491  MEMB      65              0.0000000000
      9340        93  DOPC      H13C          -31.4542489075      -33.2600816425       21.3098570888  MEMB      65              0.0000000000
      9341        93  DOPC      C14           -33.8650760619      -31.9945904879       20.3389940242  MEMB      65              0.0000000000
      9342        93  DOPC      H14A          -34.4349703449      -32.6871413912       19.7261473751  MEMB      65              0.0000000000
      9343        93  DOPC      H14B          -34.0182525181      -32.2778030972       21.3750204113  MEMB      65              0.0000000000
      9344        93  DOPC      H14C          -34.3178727980      -31.0145969718       20.2013846677  MEMB      65              0.0000000000
      9345        93  DOPC      C15           -31.7417425507      -30.8957040288       20.8572159570  MEMB      65              0.0000000000
      9346        93  DOPC      H15A          -30.6729057733      -30.8359087474       20.6536775209  MEMB      65              0.0000000000
      9347        93  DOPC      H15B          -31.8488514499      -31.1013039486       21.9073091325  MEMB      65              0.0000000000
      9348        93  DOPC      H15C          -32.1663021116      -29.9094718550       20.6319700993  MEMB      65              0.0000000000
      9349        93  DOPC      C11           -32.7591090017      -30.0529754645       18.1040619249  MEMB      65              0.0000000000
      9350        93  DOPC      H11A          -32.5685236908      -29.8860558301       17.0157887978  MEMB      65              0.0000000000
      9351        93  DOPC      H11B          -33.8679355577      -30.0527799340       18.2241801703  MEMB      65              0.0000000000
      9352        93  DOPC      P             -31.0175302988      -28.0348879616       18.4592850279  MEMB      65              0.0000000000
      9353        93  DOPC      O13           -30.2277012999      -27.7690986430       19.6863848746  MEMB      65              0.0000000000
      9354        93  DOPC      O14           -31.5517248985      -26.8652698996       17.7460619340  MEMB      65              0.0000000000
      9355        93  DOPC      O12           -32.2149476464      -28.9958317822       18.8942313683  MEMB      65              0.0000000000
      9356        93  DOPC      O11           -30.1017965558      -28.9393636375       17.5087009492  MEMB      65              0.0000000000
      9357        93  DOPC      C1            -29.0531129932      -29.7059332901       18.1202569380  MEMB      65              0.0000000000
      9358        93  DOPC      HA            -29.4983897174      -30.4700037250       18.7878505496  MEMB      65              0.0000000000
      9359        93  DOPC      HB            -28.3847293652      -29.0447972519       18.7248267615  MEMB      65              0.0000000000
      9360        93  DOPC      C2            -28.0780619729      -30.4542576511       17.1467742906  MEMB      65              0.0000000000
      9361        93  DOPC      HS            -27.0431691875      -30.4016487569       17.5653243052  MEMB      65              0.0000000000
      9362        93  DOPC      O21           -28.1450242649      -29.9035515925       15.8171151204  MEMB      65              0.0000000000
      9363        93  DOPC      C21           -27.3855040361      -28.8077913564       15.7006838685  MEMB      65              0.0000000000
      9364        93  DOPC      O22           -26.5913084751      -28.4145329421       16.5360160689  MEMB      65              0.0000000000
      9365        93  DOPC      C22           -27.6225239209      -28.0898787485       14.3637754747  MEMB      65              0.0000000000
      9366        93  DOPC      H2R           -26.6531626916      -27.6439720145       14.0512055377  MEMB      65              0.0000000000
      9367        93  DOPC      H2S           -28.3172629845      -27.2547461219       14.5976706084  MEMB      65              0.0000000000
      9368        93  DOPC      C3            -28.3693371904      -31.9860531830       17.1045456616  MEMB      65              0.0000000000
      9369        93  DOPC      HX            -28.2057375173      -32.3597673846       18.1319937020  MEMB      65              0.0000000000
      9370        93  DOPC      HY            -27.5962198321      -32.4952008265       16.4739371244  MEMB      65              0.0000000000
      9371        93  DOPC      O31           -29.7314008292      -32.3131091875       16.7605338170  MEMB      65              0.0000000000
      9372        93  DOPC      C31           -29.8645580369      -32.4990313003       15.4586797314  MEMB      65              0.0000000000
      9373        93  DOPC      O32           -28.9707834318      -32.5222960583       14.6338572961  MEMB      65              0.0000000000
      9374        93  DOPC      C32           -31.3278959428      -32.7170337091       15.1554157032  MEMB      65              0.0000000000
      9375        93  DOPC      H2X           -31.7444985005      -33.4727522969       15.8500858193  MEMB      65              0.0000000000
      9376        93  DOPC      H2Y           -31.8605829821      -31.7503180438       15.2800521587  MEMB      65              0.0000000000
      9377        93  DOPC      C23           -28.2124048798      -28.9376774774       13.2058817357  MEMB      65              0.0000000000
      9378        93  DOPC      H3R           -28.5794076956      -28.2293133483       12.4257996220  MEMB      65              0.0000000000
      9379        93  DOPC      H3S           -29.0928725638      -29.5261835122       13.5444922169  MEMB      65              0.0000000000
      9380        93  DOPC      C24           -27.1719408402      -29.8564149441       12.5502590102  MEMB      65              0.0000000000
      9381        93  DOPC      H4R           -26.9920967182      -30.7379013268       13.2072503243  MEMB      65              0.0000000000
      9382        93  DOPC      H4S           -26.2129110903      -29.2972429188       12.4517054175  MEMB      65              0.0000000000
      9383        93  DOPC      C25           -27.5697083992      -30.3221471130       11.1436724967  MEMB      65              0.0000000000
      9384        93  DOPC      H5R           -26.7116265027      -30.8816566919       10.7104011251  MEMB      65              0.0000000000
      9385        93  DOPC      H5S           -27.7255795795      -29.4366337652       10.4944511710  MEMB      65              0.0000000000
      9386        93  DOPC      C26           -28.8139643720      -31.2125228395       11.1012682593  MEMB      65              0.0000000000
      9387        93  DOPC      H6R           -29.7381094725      -30.5984710983       11.1873455587  MEMB      65              0.0000000000
      9388        93  DOPC      H6S           -28.7968271962      -31.9141725375       11.9672324697  MEMB      65              0.0000000000
      9389        93  DOPC      C27           -28.8743175440      -32.0455465709        9.8190078098  MEMB      65              0.0000000000
      9390        93  DOPC      H7R           -29.7521338499      -32.7127442390        9.8834026656  MEMB      65              0.0000000000
      9391        93  DOPC      H7S           -27.9922322327      -32.6940202827        9.7347915567  MEMB      65              0.0000000000
      9392        93  DOPC      C28           -29.0563284980      -31.2304242982        8.5392884579  MEMB      65              0.0000000000
      9393        93  DOPC      H8R           -29.7468466315      -30.4011324966        8.7924316094  MEMB      65              0.0000000000
      9394        93  DOPC      H8S           -29.6324918058      -31.8726930818        7.8658422784  MEMB      65              0.0000000000
      9395        93  DOPC      C29           -27.8299701086      -30.7949959016        7.7790695794  MEMB      65              0.0000000000
      9396        93  DOPC      H9R           -27.1914188993      -31.6065220231        7.3936098785  MEMB      65              0.0000000000
      9397        93  DOPC      C210          -27.5081357789      -29.5181683230        7.5158767912  MEMB      65              0.0000000000
      9398        93  DOPC      H10R          -26.5951598127      -29.3063164899        6.9379177898  MEMB      65              0.0000000000
      9399        93  DOPC      C211          -28.3140125751      -28.3139016556        7.9416476333  MEMB      65              0.0000000000
      9400        93  DOPC      H11R          -27.6236398945      -27.4617407255        8.1182144468  MEMB      65              0.0000000000
      9401        93  DOPC      H11S          -28.8220356230      -28.4944232655        8.9165459674  MEMB      65              0.0000000000
      9402        93  DOPC      C212          -29.4060087639      -27.8774098424        6.9417352798  MEMB      65              0.0000000000
      9403        93  DOPC      H12R          -29.0005840569      -27.8330877900        5.9082224636  MEMB      65              0.0000000000
      9404        93  DOPC      H12S          -29.7326306924      -26.8515490189        7.2287771717  MEMB      65              0.0000000000
      9405        93  DOPC      C213          -30.6565242236      -28.7710443063        6.9784022705  MEMB      65              0.0000000000
      9406        93  DOPC      H13R          -31.0274223147      -28.8106947910        8.0276525343  MEMB      65              0.0000000000
      9407        93  DOPC      H13S          -30.3832020579      -29.8061553870        6.6738370708  MEMB      65              0.0000000000
      9408        93  DOPC      C214          -31.7933798453      -28.2835884390        6.0785295615  MEMB      65              0.0000000000
      9409        93  DOPC      H14R          -31.7315892252      -27.1831898296        5.9472854443  MEMB      65              0.0000000000
      9410        93  DOPC      H14S          -32.7675132112      -28.5140415734        6.5651841134  MEMB      65              0.0000000000
      9411        93  DOPC      C215          -31.7755356500      -28.9887742544        4.7248493382  MEMB      65              0.0000000000
      9412        93  DOPC      H15R          -32.0641197525      -30.0495304939        4.8872986579  MEMB      65              0.0000000000
      9413        93  DOPC      H15S          -30.7406648343      -28.9956208875        4.3192686023  MEMB      65              0.0000000000
      9414        93  DOPC      C216          -32.7385051428      -28.3666611703        3.7098552506  MEMB      65              0.0000000000
      9415        93  DOPC      H16R          -32.2974106952      -27.4272157042        3.3076686123  MEMB      65              0.0000000000
      9416        93  DOPC      H16S          -33.6860035556      -28.1002512565        4.2200355014  MEMB      65              0.0000000000
      9417        93  DOPC      C217          -33.0031629533      -29.3399072683        2.5649300652  MEMB      65              0.0000000000
      9418        93  DOPC      H17R          -33.9242383978      -29.0673510910        2.0029839115  MEMB      65              0.0000000000
      9419        93  DOPC      H17S          -33.1598871534      -30.3592336726        2.9880263559  MEMB      65              0.0000000000
      9420        93  DOPC      C218          -31.8236217930      -29.3501337934        1.6123181865  MEMB      65              0.0000000000
      9421        93  DOPC      H18R          -31.9130866257      -28.5171595858        0.8903195172  MEMB      65              0.0000000000
      9422        93  DOPC      H18S          -31.7298232088      -30.3095459921        1.0668533825  MEMB      65              0.0000000000
      9423        93  DOPC      H18T          -30.8784098693      -29.1737884573        2.1607947627  MEMB      65              0.0000000000
      9424        93  DOPC      C33           -31.4507760110      -33.1618954610       13.6997345534  MEMB      65              0.0000000000
      9425        93  DOPC      H3X           -31.0437711516      -32.3645190046       13.0332134593  MEMB      65              0.0000000000
      9426        93  DOPC      H3Y           -32.5302264802      -33.2709950175       13.4580759877  MEMB      65              0.0000000000
      9427        93  DOPC      C34           -30.7438197215      -34.4800637908       13.3651954732  MEMB      65              0.0000000000
      9428        93  DOPC      H4X           -30.6792719712      -35.1533460389       14.2459298636  MEMB      65              0.0000000000
      9429        93  DOPC      H4Y           -29.6995086459      -34.2844151546       13.0179883070  MEMB      65              0.0000000000
      9430        93  DOPC      C35           -31.5138373281      -35.1329542093       12.2385924561  MEMB      65              0.0000000000
      9431        93  DOPC      H5X           -32.5947866116      -35.1885123765       12.5068902156  MEMB      65              0.0000000000
      9432        93  DOPC      H5Y           -31.1650698105      -36.1626472758       12.0538719565  MEMB      65              0.0000000000
      9433        93  DOPC      C36           -31.3331907328      -34.3248448740       10.9754302084  MEMB      65              0.0000000000
      9434        93  DOPC      H6X           -31.3863764032      -33.2324065596       11.1737520562  MEMB      65              0.0000000000
      9435        93  DOPC      H6Y           -30.3246190151      -34.5592026911       10.5642996972  MEMB      65              0.0000000000
      9436        93  DOPC      C37           -32.3975375150      -34.6363329848        9.9554195029  MEMB      65              0.0000000000
      9437        93  DOPC      H7X           -32.4026544692      -35.7356914228        9.8079464263  MEMB      65              0.0000000000
      9438        93  DOPC      H7Y           -33.3980171428      -34.3645800550       10.3437865980  MEMB      65              0.0000000000
      9439        93  DOPC      C38           -32.0937746836      -33.9545519119        8.6219283593  MEMB      65              0.0000000000
      9440        93  DOPC      H8X           -32.7540362914      -34.4529937190        7.8902586248  MEMB      65              0.0000000000
      9441        93  DOPC      H8Y           -31.0380363830      -34.1953233926        8.3604772159  MEMB      65              0.0000000000
      9442        93  DOPC      C39           -32.3484616122      -32.4807497468        8.4913306382  MEMB      65              0.0000000000
      9443        93  DOPC      H9X           -32.5466026502      -31.9039157657        9.4094317515  MEMB      65              0.0000000000
      9444        93  DOPC      C310          -32.3304292346      -31.8831131146        7.2885221955  MEMB      65              0.0000000000
      9445        93  DOPC      H10X          -32.5851150011      -30.8145682276        7.2116909171  MEMB      65              0.0000000000
      9446        93  DOPC      C311          -32.0588938002      -32.6183873304        5.9915475022  MEMB      65              0.0000000000
      9447        93  DOPC      H11X          -32.5519636902      -32.0951319992        5.1453789324  MEMB      65              0.0000000000
      9448        93  DOPC      H11Y          -32.5134755516      -33.6325947249        6.0131952765  MEMB      65              0.0000000000
      9449        93  DOPC      C312          -30.5670559896      -32.8300437985        5.6641971963  MEMB      65              0.0000000000
      9450        93  DOPC      H12X          -30.0258701559      -33.1748974139        6.5691388780  MEMB      65              0.0000000000
      9451        93  DOPC      H12Y          -30.1180770970      -31.8701696390        5.3234900522  MEMB      65              0.0000000000
      9452        93  DOPC      C313          -30.2769331548      -33.9729914472        4.6861662103  MEMB      65              0.0000000000
      9453        93  DOPC      H13X          -29.1909747409      -33.9606706365        4.4323389059  MEMB      65              0.0000000000
      9454        93  DOPC      H13Y          -30.4852413681      -34.9360677563        5.2056286718  MEMB      65              0.0000000000
      9455        93  DOPC      C314          -31.0853858286      -33.9279711709        3.3947911493  MEMB      65              0.0000000000
      9456        93  DOPC      H14X          -30.9944081327      -34.9334625309        2.9346556185  MEMB      65              0.0000000000
      9457        93  DOPC      H14Y          -32.1616318989      -33.7367447670        3.5910201565  MEMB      65              0.0000000000
      9458        93  DOPC      C315          -30.5113230412      -32.9171521657        2.4028946326  MEMB      65              0.0000000000
      9459        93  DOPC      H15X          -29.8409934557      -32.2862586178        3.0145355039  MEMB      65              0.0000000000
      9460        93  DOPC      H15Y          -31.3023618143      -32.2545577919        2.0073918835  MEMB      65              0.0000000000
      9461        93  DOPC      C316          -29.7251342639      -33.6294740447        1.2870761721  MEMB      65              0.0000000000
      9462        93  DOPC      H16X          -28.8410134936      -34.0896384177        1.7599257833  MEMB      65              0.0000000000
      9463        93  DOPC      H16Y          -30.3408799885      -34.4332292116        0.8461003377  MEMB      65              0.0000000000
      9464        93  DOPC      C317          -29.2095668442      -32.8246916844        0.1008565274  MEMB      65              0.0000000000
      9465        93  DOPC      H17X          -30.0515791367      -32.5211533743       -0.5588271282  MEMB      65              0.0000000000
      9466        93  DOPC      H17Y          -28.7165356660      -31.9162497850        0.4525838141  MEMB      65              0.0000000000
      9467        93  DOPC      C318          -28.1288860506      -33.5390195004       -0.6970578455  MEMB      65              0.0000000000
      9468        93  DOPC      H18X          -28.1257867643      -33.1198463794       -1.7229089134  MEMB      65              0.0000000000
      9469        93  DOPC      H18Y          -27.1270347400      -33.3562873922       -0.2482115210  MEMB      65              0.0000000000
      9470        93  DOPC      H18Z          -28.2949612306      -34.6329681277       -0.7570192028  MEMB      65              0.0000000000
      9471        94  DOPC      N              29.3889153551      -35.3742402402       19.0631907150  MEMB      66              0.0000000000
      9472        94  DOPC      C12            28.6385496490      -34.0369387031       19.1016151650  MEMB      66              0.0000000000
      9473        94  DOPC      H12A           27.6621749146      -34.1972777017       19.5399185109  MEMB      66              0.0000000000
      9474        94  DOPC      H12B           28.4930898787      -33.6799554287       18.0833940282  MEMB      66              0.0000000000
      9475        94  DOPC      C13            29.8399555686      -35.7166878817       20.4596927125  MEMB      66              0.0000000000
      9476        94  DOPC      H13A           29.0182086476      -35.7411429054       21.1688458987  MEMB      66              0.0000000000
      9477        94  DOPC      H13B           30.4057986557      -36.6322849343       20.4997448824  MEMB      66              0.0000000000
      9478        94  DOPC      H13C           30.5222576549      -34.9203086261       20.7954272328  MEMB      66              0.0000000000
      9479        94  DOPC      C14            30.6390281936      -35.2849611421       18.2318945754  MEMB      66              0.0000000000
      9480        94  DOPC      H14A           31.3891492682      -34.6964506892       18.7681056994  MEMB      66              0.0000000000
      9481        94  DOPC      H14B           31.0525849684      -36.2655818570       18.0109839637  MEMB      66              0.0000000000
      9482        94  DOPC      H14C           30.4609749050      -34.7418758212       17.3101085173  MEMB      66              0.0000000000
      9483        94  DOPC      C15            28.5070210506      -36.3929976993       18.4255127924  MEMB      66              0.0000000000
      9484        94  DOPC      H15A           28.2270694023      -36.0620655039       17.4303818800  MEMB      66              0.0000000000
      9485        94  DOPC      H15B           27.6124552454      -36.6020188310       19.0033395909  MEMB      66              0.0000000000
      9486        94  DOPC      H15C           29.0470866572      -37.3263322856       18.2858601231  MEMB      66              0.0000000000
      9487        94  DOPC      C11            29.2845867881      -32.8438786624       19.8285084149  MEMB      66              0.0000000000
      9488        94  DOPC      H11A           28.5354974097      -32.0217139804       19.9062344823  MEMB      66              0.0000000000
      9489        94  DOPC      H11B           29.5700848512      -33.0919935008       20.8824799848  MEMB      66              0.0000000000
      9490        94  DOPC      P              31.8347434089      -32.3999109157       19.5438552297  MEMB      66              0.0000000000
      9491        94  DOPC      O13            31.9918589545      -33.5114728044       20.5048791255  MEMB      66              0.0000000000
      9492        94  DOPC      O14            32.1975865438      -31.0425693304       19.9794293785  MEMB      66              0.0000000000
      9493        94  DOPC      O12            30.3561121887      -32.3908550714       19.0153905101  MEMB      66              0.0000000000
      9494        94  DOPC      O11            32.6610678404      -32.7964821623       18.2708114632  MEMB      66              0.0000000000
      9495        94  DOPC      C1             32.2611588231      -32.1651225698       17.0695105221  MEMB      66              0.0000000000
      9496        94  DOPC      HA             32.3272369094      -31.0613551025       17.1803880199  MEMB      66              0.0000000000
      9497        94  DOPC      HB             31.2013116692      -32.3845402984       16.8021381863  MEMB      66              0.0000000000
      9498        94  DOPC      C2             33.1802138146      -32.6358151826       15.9330293670  MEMB      66              0.0000000000
      9499        94  DOPC      HS             33.0113725472      -31.9855005581       15.0534905352  MEMB      66              0.0000000000
      9500        94  DOPC      O21            32.9255276814      -34.0018739291       15.5633621595  MEMB      66              0.0000000000
      9501        94  DOPC      C21            31.7846791307      -34.1595300320       14.9152362824  MEMB      66              0.0000000000
      9502        94  DOPC      O22            31.0656425343      -33.2750400004       14.4964400032  MEMB      66              0.0000000000
      9503        94  DOPC      C22            31.4705812404      -35.6428021599       14.8141709076  MEMB      66              0.0000000000
      9504        94  DOPC      H2R            30.8298590779      -35.8930039080       15.6788686382  MEMB      66              0.0000000000
      9505        94  DOPC      H2S            32.4070314420      -36.2293247585       14.9038697236  MEMB      66              0.0000000000
      9506        94  DOPC      C3             34.6752976328      -32.4919681701       16.2829071531  MEMB      66              0.0000000000
      9507        94  DOPC      HX             34.8886991676      -33.1409967073       17.1625220590  MEMB      66              0.0000000000
      9508        94  DOPC      HY             34.9199991314      -31.4408271689       16.5695671699  MEMB      66              0.0000000000
      9509        94  DOPC      O31            35.4102576436      -32.9471487946       15.1300695297  MEMB      66              0.0000000000
      9510        94  DOPC      C31            35.2899527515      -32.0795632656       14.1117200164  MEMB      66              0.0000000000
      9511        94  DOPC      O32            35.4052980782      -30.8750399393       14.2172885973  MEMB      66              0.0000000000
      9512        94  DOPC      C32            34.7339484032      -32.7778241694       12.8718164886  MEMB      66              0.0000000000
      9513        94  DOPC      H2X            34.8933078102      -33.8719489328       12.9391392327  MEMB      66              0.0000000000
      9514        94  DOPC      H2Y            33.6400000078      -32.5793359988       12.9081228361  MEMB      66              0.0000000000
      9515        94  DOPC      C23            30.6907297641      -35.9782133846       13.5263835983  MEMB      66              0.0000000000
      9516        94  DOPC      H3R            30.0322114763      -35.1349684867       13.2242888354  MEMB      66              0.0000000000
      9517        94  DOPC      H3S            30.0269743444      -36.8468709944       13.7227778805  MEMB      66              0.0000000000
      9518        94  DOPC      C24            31.6176457455      -36.3544487186       12.3752296075  MEMB      66              0.0000000000
      9519        94  DOPC      H4R            32.1703553595      -37.2637669739       12.7008289505  MEMB      66              0.0000000000
      9520        94  DOPC      H4S            32.3558826393      -35.5412998111       12.2182776466  MEMB      66              0.0000000000
      9521        94  DOPC      C25            30.8765684347      -36.7022072037       11.0723513395  MEMB      66              0.0000000000
      9522        94  DOPC      H5R            30.0651905625      -37.4165726160       11.3232533902  MEMB      66              0.0000000000
      9523        94  DOPC      H5S            31.5802492456      -37.2218891878       10.3825575056  MEMB      66              0.0000000000
      9524        94  DOPC      C26            30.2656976514      -35.5095650049       10.3141077200  MEMB      66              0.0000000000
      9525        94  DOPC      H6R            31.0783425520      -34.8318137258        9.9822773179  MEMB      66              0.0000000000
      9526        94  DOPC      H6S            29.6057669317      -34.9372321684       11.0005864936  MEMB      66              0.0000000000
      9527        94  DOPC      C27            29.4527061335      -35.9501637354        9.0809182434  MEMB      66              0.0000000000
      9528        94  DOPC      H7R            28.6072375606      -36.5782143039        9.4393654630  MEMB      66              0.0000000000
      9529        94  DOPC      H7S            30.0867836409      -36.5843643671        8.4219947152  MEMB      66              0.0000000000
      9530        94  DOPC      C28            28.8518543779      -34.7953825706        8.2549165639  MEMB      66              0.0000000000
      9531        94  DOPC      H8R            28.3656663611      -34.0792449996        8.9554662945  MEMB      66              0.0000000000
      9532        94  DOPC      H8S            28.0381927604      -35.2061090758        7.6142071951  MEMB      66              0.0000000000
      9533        94  DOPC      C29            29.8674307251      -34.0817692912        7.3992574838  MEMB      66              0.0000000000
      9534        94  DOPC      H9R            30.2947168275      -33.1777988783        7.8641558646  MEMB      66              0.0000000000
      9535        94  DOPC      C210           30.2919253448      -34.4324510869        6.1659004268  MEMB      66              0.0000000000
      9536        94  DOPC      H10R           31.0046619475      -33.7678139304        5.6695859450  MEMB      66              0.0000000000
      9537        94  DOPC      C211           29.8890013240      -35.6094848389        5.3054833113  MEMB      66              0.0000000000
      9538        94  DOPC      H11R           29.1617278771      -35.2524788082        4.5414872285  MEMB      66              0.0000000000
      9539        94  DOPC      H11S           29.3647354286      -36.3796494682        5.9130865668  MEMB      66              0.0000000000
      9540        94  DOPC      C212           31.0557827454      -36.3046240788        4.5347278876  MEMB      66              0.0000000000
      9541        94  DOPC      H12R           30.6155975128      -37.1261689086        3.9252406763  MEMB      66              0.0000000000
      9542        94  DOPC      H12S           31.7686103439      -36.7526206723        5.2598252197  MEMB      66              0.0000000000
      9543        94  DOPC      C213           31.8302158366      -35.3601284150        3.5891348517  MEMB      66              0.0000000000
      9544        94  DOPC      H13R           32.2778267724      -34.5703923388        4.2137975643  MEMB      66              0.0000000000
      9545        94  DOPC      H13S           31.0741789524      -34.8823276774        2.9205328997  MEMB      66              0.0000000000
      9546        94  DOPC      C214           32.9260705318      -35.9565032188        2.6683628109  MEMB      66              0.0000000000
      9547        94  DOPC      H14R           32.9493713843      -35.2940725897        1.7689868719  MEMB      66              0.0000000000
      9548        94  DOPC      H14S           32.6066230741      -36.9542408167        2.3171195170  MEMB      66              0.0000000000
      9549        94  DOPC      C215           34.3924559128      -35.9943150891        3.1845086636  MEMB      66              0.0000000000
      9550        94  DOPC      H15R           34.4770758282      -36.6673979258        4.0594847177  MEMB      66              0.0000000000
      9551        94  DOPC      H15S           34.6730375841      -34.9704499163        3.4916271772  MEMB      66              0.0000000000
      9552        94  DOPC      C216           35.3795577081      -36.4204070097        2.0782016402  MEMB      66              0.0000000000
      9553        94  DOPC      H16R           35.1387057000      -35.8219769463        1.1933857198  MEMB      66              0.0000000000
      9554        94  DOPC      H16S           35.2083052595      -37.4745542430        1.8031910568  MEMB      66              0.0000000000
      9555        94  DOPC      C217           36.8924963893      -36.2708562596        2.2297996617  MEMB      66              0.0000000000
      9556        94  DOPC      H17R           37.3339557131      -37.2806604806        2.2874849773  MEMB      66              0.0000000000
      9557        94  DOPC      H17S           37.1579595548      -35.7276745106        3.1550575903  MEMB      66              0.0000000000
      9558        94  DOPC      C218           37.5562303695      -35.7087011869        0.9762644999  MEMB      66              0.0000000000
      9559        94  DOPC      H18R           36.9873006716      -35.9804364397        0.0647405222  MEMB      66              0.0000000000
      9560        94  DOPC      H18S           38.5828921960      -36.1179461436        0.8654600393  MEMB      66              0.0000000000
      9561        94  DOPC      H18T           37.6385185017      -34.6147266335        1.0285561240  MEMB      66              0.0000000000
      9562        94  DOPC      C33            35.3104714886      -32.1877810044       11.5657801571  MEMB      66              0.0000000000
      9563        94  DOPC      H3X            36.3097287325      -32.6329401713       11.3766051077  MEMB      66              0.0000000000
      9564        94  DOPC      H3Y            35.4847557618      -31.0915533425       11.6978276006  MEMB      66              0.0000000000
      9565        94  DOPC      C34            34.4143990499      -32.3266075462       10.3143376460  MEMB      66              0.0000000000
      9566        94  DOPC      H4X            35.0742216940      -32.4229716333        9.4255271753  MEMB      66              0.0000000000
      9567        94  DOPC      H4Y            33.8510306442      -31.3723233107       10.1929188368  MEMB      66              0.0000000000
      9568        94  DOPC      C35            33.3780171917      -33.4678733506       10.2833878439  MEMB      66              0.0000000000
      9569        94  DOPC      H5X            32.7049458350      -33.2804132965        9.4170913761  MEMB      66              0.0000000000
      9570        94  DOPC      H5Y            32.7248273809      -33.4105375986       11.1794356204  MEMB      66              0.0000000000
      9571        94  DOPC      C36            33.9490684362      -34.8926975466       10.1635102038  MEMB      66              0.0000000000
      9572        94  DOPC      H6X            34.6917248499      -35.0535805713       10.9754536207  MEMB      66              0.0000000000
      9573        94  DOPC      H6Y            33.1407411165      -35.6350167145       10.2981169194  MEMB      66              0.0000000000
      9574        94  DOPC      C37            34.5925523209      -35.2391920674        8.8187032682  MEMB      66              0.0000000000
      9575        94  DOPC      H7X            35.4326810074      -34.5293803482        8.6839907742  MEMB      66              0.0000000000
      9576        94  DOPC      H7Y            35.0177070119      -36.2665148356        8.8929086092  MEMB      66              0.0000000000
      9577        94  DOPC      C38            33.6662428082      -35.1539619209        7.5931887690  MEMB      66              0.0000000000
      9578        94  DOPC      H8X            32.9897132892      -34.2803733559        7.6742513088  MEMB      66              0.0000000000
      9579        94  DOPC      H8Y            33.0190488596      -36.0564680497        7.5315654115  MEMB      66              0.0000000000
      9580        94  DOPC      C39            34.5458746470      -35.0086867776        6.3836404217  MEMB      66              0.0000000000
      9581        94  DOPC      H9X            34.9599672651      -35.9458268889        5.9855272842  MEMB      66              0.0000000000
      9582        94  DOPC      C310           34.9041861925      -33.8465708304        5.8125585994  MEMB      66              0.0000000000
      9583        94  DOPC      H10X           35.5968477377      -33.8770735096        4.9595591509  MEMB      66              0.0000000000
      9584        94  DOPC      C311           34.5171589535      -32.4554067234        6.2356744765  MEMB      66              0.0000000000
      9585        94  DOPC      H11X           35.3274029095      -31.7449897312        5.9635638931  MEMB      66              0.0000000000
      9586        94  DOPC      H11Y           34.3906142503      -32.3962731529        7.3392477222  MEMB      66              0.0000000000
      9587        94  DOPC      C312           33.2149690406      -31.9595193094        5.5860551323  MEMB      66              0.0000000000
      9588        94  DOPC      H12X           33.0840750021      -30.8925831584        5.8630084778  MEMB      66              0.0000000000
      9589        94  DOPC      H12Y           32.3696393155      -32.4949323474        6.0505605932  MEMB      66              0.0000000000
      9590        94  DOPC      C313           33.1637653817      -32.0762292354        4.0511555476  MEMB      66              0.0000000000
      9591        94  DOPC      H13X           33.9426006815      -31.3954164182        3.6505581706  MEMB      66              0.0000000000
      9592        94  DOPC      H13Y           33.4573692273      -33.0831516912        3.7027370197  MEMB      66              0.0000000000
      9593        94  DOPC      C314           31.7726734547      -31.7471665773        3.4683865006  MEMB      66              0.0000000000
      9594        94  DOPC      H14X           31.0398276135      -32.5259608636        3.7746259144  MEMB      66              0.0000000000
      9595        94  DOPC      H14Y           31.4211589327      -30.7887451157        3.9105193813  MEMB      66              0.0000000000
      9596        94  DOPC      C315           31.7440180445      -31.6173025543        1.9337301717  MEMB      66              0.0000000000
      9597        94  DOPC      H15X           30.7634230218      -31.1862823773        1.6290569586  MEMB      66              0.0000000000
      9598        94  DOPC      H15Y           31.8325916898      -32.6273320462        1.4784846412  MEMB      66              0.0000000000
      9599        94  DOPC      C316           32.8725828047      -30.7314522268        1.3926903245  MEMB      66              0.0000000000
      9600        94  DOPC      H16X           32.9702222285      -29.8442233418        2.0350140425  MEMB      66              0.0000000000
      9601        94  DOPC      H16Y           33.8370426312      -31.2373043207        1.5159771340  MEMB      66              0.0000000000
      9602        94  DOPC      C317           32.7071132475      -30.2453215615       -0.0502608100  MEMB      66              0.0000000000
      9603        94  DOPC      H17X           31.7507913758      -29.6826794188       -0.0864175664  MEMB      66              0.0000000000
      9604        94  DOPC      H17Y           33.5465810036      -29.5495397742       -0.2663984095  MEMB      66              0.0000000000
      9605        94  DOPC      C318           32.6732427467      -31.2986309456       -1.1484888418  MEMB      66              0.0000000000
      9606        94  DOPC      H18X           33.6331338562      -31.8397948786       -1.2396082766  MEMB      66              0.0000000000
      9607        94  DOPC      H18Y           31.8822541803      -32.0275321109       -0.9083884438  MEMB      66              0.0000000000
      9608        94  DOPC      H18Z           32.4560984880      -30.8363244002       -2.1362911036  MEMB      66              0.0000000000
      9609        95  DOPC      N              -7.6901711817       11.3364916864      -20.9358480782  MEMB      67              0.0000000000
      9610        95  DOPC      C12            -8.3604319587       10.8438374524      -19.6484001408  MEMB      67              0.0000000000
      9611        95  DOPC      H12A           -9.3952215436       10.6210721535      -19.8723260005  MEMB      67              0.0000000000
      9612        95  DOPC      H12B           -8.3238035127       11.6245136058      -18.8962910426  MEMB      67              0.0000000000
      9613        95  DOPC      C13            -8.1193917153       12.6816697391      -21.4379784906  MEMB      67              0.0000000000
      9614        95  DOPC      H13A           -7.8972657640       13.4696478377      -20.7204951231  MEMB      67              0.0000000000
      9615        95  DOPC      H13B           -7.5712535607       12.9197963829      -22.3474085734  MEMB      67              0.0000000000
      9616        95  DOPC      H13C           -9.1576221858       12.7381074456      -21.7365835286  MEMB      67              0.0000000000
      9617        95  DOPC      C14            -7.9443701116       10.3112437541      -22.0083787786  MEMB      67              0.0000000000
      9618        95  DOPC      H14A           -7.6184920745        9.3323132443      -21.6583274864  MEMB      67              0.0000000000
      9619        95  DOPC      H14B           -9.0074293820       10.2450342633      -22.2559210677  MEMB      67              0.0000000000
      9620        95  DOPC      H14C           -7.4311556506       10.5173883449      -22.9429767240  MEMB      67              0.0000000000
      9621        95  DOPC      C15            -6.2376158392       11.5032080588      -20.6219847124  MEMB      67              0.0000000000
      9622        95  DOPC      H15A           -6.1164081467       12.3129566806      -19.9055532658  MEMB      67              0.0000000000
      9623        95  DOPC      H15B           -5.6317030416       11.6851020535      -21.4946779715  MEMB      67              0.0000000000
      9624        95  DOPC      H15C           -5.8603983013       10.6084190456      -20.1194512402  MEMB      67              0.0000000000
      9625        95  DOPC      C11            -7.8043140211        9.5395228239      -18.9803528797  MEMB      67              0.0000000000
      9626        95  DOPC      H11A           -8.4639332126        9.2675201038      -18.1211878551  MEMB      67              0.0000000000
      9627        95  DOPC      H11B           -7.8526323581        8.6959648628      -19.7030451423  MEMB      67              0.0000000000
      9628        95  DOPC      P              -5.7357370445        8.8630649912      -17.4294811937  MEMB      67              0.0000000000
      9629        95  DOPC      O13            -4.2997613162        9.2102897768      -17.5319657912  MEMB      67              0.0000000000
      9630        95  DOPC      O14            -6.1322540149        7.4434577485      -17.5268916725  MEMB      67              0.0000000000
      9631        95  DOPC      O12            -6.4616501487        9.7051371111      -18.5617973392  MEMB      67              0.0000000000
      9632        95  DOPC      O11            -6.3533636474        9.4932981247      -16.1200936951  MEMB      67              0.0000000000
      9633        95  DOPC      C1             -5.8881276215       10.7228809084      -15.5675503998  MEMB      67              0.0000000000
      9634        95  DOPC      HA             -5.5492576525       11.4449968915      -16.3490164501  MEMB      67              0.0000000000
      9635        95  DOPC      HB             -5.0159508140       10.5262136691      -14.9051637055  MEMB      67              0.0000000000
      9636        95  DOPC      C2             -7.0410140792       11.3854713536      -14.7569784982  MEMB      67              0.0000000000
      9637        95  DOPC      HS             -6.6582922630       12.2958285098      -14.2434033018  MEMB      67              0.0000000000
      9638        95  DOPC      O21            -7.6057213169       10.4690170553      -13.7953586093  MEMB      67              0.0000000000
      9639        95  DOPC      C21            -6.7569393176       10.0307537239      -12.8859752352  MEMB      67              0.0000000000
      9640        95  DOPC      O22            -5.6967310647       10.5482116732      -12.5876554422  MEMB      67              0.0000000000
      9641        95  DOPC      C22            -7.2913753880        8.7421096751      -12.2432688867  MEMB      67              0.0000000000
      9642        95  DOPC      H2R            -6.9792344198        7.9086608275      -12.9082185159  MEMB      67              0.0000000000
      9643        95  DOPC      H2S            -8.3987104323        8.7818458254      -12.2170515226  MEMB      67              0.0000000000
      9644        95  DOPC      C3             -8.1661783145       11.8205942608      -15.7386697050  MEMB      67              0.0000000000
      9645        95  DOPC      HX             -8.5416369344       10.8880626562      -16.2209402160  MEMB      67              0.0000000000
      9646        95  DOPC      HY             -7.7326467771       12.4587451439      -16.5392566205  MEMB      67              0.0000000000
      9647        95  DOPC      O31            -9.2557063848       12.4476061945      -15.0427792251  MEMB      67              0.0000000000
      9648        95  DOPC      C31            -9.3679368895       13.7654846310      -15.1016215914  MEMB      67              0.0000000000
      9649        95  DOPC      O32            -8.7488721985       14.5255759505      -15.8238460490  MEMB      67              0.0000000000
      9650        95  DOPC      C32           -10.3367302266       14.2265028385      -14.0046070691  MEMB      67              0.0000000000
      9651        95  DOPC      H2X           -10.4747481056       15.3182349616      -14.1329631575  MEMB      67              0.0000000000
      9652        95  DOPC      H2Y           -11.3056627675       13.7145029785      -14.1777143509  MEMB      67              0.0000000000
      9653        95  DOPC      C23            -6.7340186470        8.5099870576      -10.8151140229  MEMB      67              0.0000000000
      9654        95  DOPC      H3R            -7.1219496250        9.2987342213      -10.1312351398  MEMB      67              0.0000000000
      9655        95  DOPC      H3S            -5.6228975993        8.6071138154      -10.8345150054  MEMB      67              0.0000000000
      9656        95  DOPC      C24            -7.0570670652        7.1246290987      -10.2254134087  MEMB      67              0.0000000000
      9657        95  DOPC      H4R            -6.6408898641        7.0769054334       -9.1923834232  MEMB      67              0.0000000000
      9658        95  DOPC      H4S            -6.5375062427        6.3454283353      -10.8285472370  MEMB      67              0.0000000000
      9659        95  DOPC      C25            -8.5505174694        6.7651433399      -10.1544994041  MEMB      67              0.0000000000
      9660        95  DOPC      H5R            -8.6318886536        5.7429838361       -9.7140326837  MEMB      67              0.0000000000
      9661        95  DOPC      H5S            -8.9834221677        6.7190503467      -11.1773818086  MEMB      67              0.0000000000
      9662        95  DOPC      C26            -9.3832576709        7.7217110533       -9.2879633643  MEMB      67              0.0000000000
      9663        95  DOPC      H6R            -9.5406004932        8.6814881640       -9.8294549883  MEMB      67              0.0000000000
      9664        95  DOPC      H6S            -8.8134641457        7.9507032359       -8.3588280406  MEMB      67              0.0000000000
      9665        95  DOPC      C27           -10.7403849841        7.1032694176       -8.9099126442  MEMB      67              0.0000000000
      9666        95  DOPC      H7R           -10.5654218083        6.1412614945       -8.3781671824  MEMB      67              0.0000000000
      9667        95  DOPC      H7S           -11.2919122483        6.8742730304       -9.8491754547  MEMB      67              0.0000000000
      9668        95  DOPC      C28           -11.6304055832        8.0104595674       -8.0440081892  MEMB      67              0.0000000000
      9669        95  DOPC      H8R           -12.6046401594        7.5008279467       -7.8730075386  MEMB      67              0.0000000000
      9670        95  DOPC      H8S           -11.8661307018        8.9124178559       -8.6471647661  MEMB      67              0.0000000000
      9671        95  DOPC      C29           -10.9837526530        8.3436097039       -6.7208552717  MEMB      67              0.0000000000
      9672        95  DOPC      H9R           -10.8043279107        7.4821125720       -6.0570619037  MEMB      67              0.0000000000
      9673        95  DOPC      C210          -10.5890716581        9.5674917015       -6.3255774027  MEMB      67              0.0000000000
      9674        95  DOPC      H10R          -10.1211574099        9.6829419931       -5.3342294751  MEMB      67              0.0000000000
      9675        95  DOPC      C211          -10.7252797233       10.8292742651       -7.1439227071  MEMB      67              0.0000000000
      9676        95  DOPC      H11R          -11.5912077401       11.4236765813       -6.7744482597  MEMB      67              0.0000000000
      9677        95  DOPC      H11S          -10.9195110657       10.6108470949       -8.2175563280  MEMB      67              0.0000000000
      9678        95  DOPC      C212           -9.4758748118       11.7227513643       -7.1241720178  MEMB      67              0.0000000000
      9679        95  DOPC      H12R           -9.5505429440       12.4436670993       -7.9677667522  MEMB      67              0.0000000000
      9680        95  DOPC      H12S           -8.5647329514       11.1133949968       -7.2970300200  MEMB      67              0.0000000000
      9681        95  DOPC      C213           -9.3663622696       12.5171873824       -5.8218120287  MEMB      67              0.0000000000
      9682        95  DOPC      H13R           -9.0980267133       11.8137559170       -5.0046111665  MEMB      67              0.0000000000
      9683        95  DOPC      H13S          -10.3720040936       12.9411984507       -5.5965185654  MEMB      67              0.0000000000
      9684        95  DOPC      C214           -8.3710673632       13.6864447143       -5.8589110536  MEMB      67              0.0000000000
      9685        95  DOPC      H14R           -8.4921855418       14.2455053455       -6.8108731128  MEMB      67              0.0000000000
      9686        95  DOPC      H14S           -7.3336647219       13.2922546096       -5.8413607847  MEMB      67              0.0000000000
      9687        95  DOPC      C215           -8.5855754600       14.6779224299       -4.7048402570  MEMB      67              0.0000000000
      9688        95  DOPC      H15R           -9.5663598985       15.1893008630       -4.8239802082  MEMB      67              0.0000000000
      9689        95  DOPC      H15S           -7.7973025589       15.4632520776       -4.7446514841  MEMB      67              0.0000000000
      9690        95  DOPC      C216           -8.5387326623       14.0045192894       -3.3324255468  MEMB      67              0.0000000000
      9691        95  DOPC      H16R           -9.1848742776       13.1019010840       -3.3097620620  MEMB      67              0.0000000000
      9692        95  DOPC      H16S           -8.9456558249       14.6972096940       -2.5681138422  MEMB      67              0.0000000000
      9693        95  DOPC      C217           -7.0995755618       13.6425399820       -2.9745326523  MEMB      67              0.0000000000
      9694        95  DOPC      H17R           -6.4647388513       14.5407253568       -3.1533745679  MEMB      67              0.0000000000
      9695        95  DOPC      H17S           -6.7570271634       12.8491531226       -3.6754148752  MEMB      67              0.0000000000
      9696        95  DOPC      C218           -6.9166195468       13.1869437391       -1.5310393712  MEMB      67              0.0000000000
      9697        95  DOPC      H18R           -7.5993918666       12.3465204744       -1.2911347768  MEMB      67              0.0000000000
      9698        95  DOPC      H18S           -7.1401928596       14.0161820982       -0.8304592466  MEMB      67              0.0000000000
      9699        95  DOPC      H18T           -5.8712219814       12.8572882597       -1.3582354909  MEMB      67              0.0000000000
      9700        95  DOPC      C33            -9.8529799593       13.9497183574      -12.5565123362  MEMB      67              0.0000000000
      9701        95  DOPC      H3X            -9.6979566872       12.8587423502      -12.4077329634  MEMB      67              0.0000000000
      9702        95  DOPC      H3Y           -10.6634726228       14.2673266165      -11.8582230921  MEMB      67              0.0000000000
      9703        95  DOPC      C34            -8.5788469552       14.7249663342      -12.1909902387  MEMB      67              0.0000000000
      9704        95  DOPC      H4X            -8.7499954921       15.8137251744      -12.3553392233  MEMB      67              0.0000000000
      9705        95  DOPC      H4Y            -7.7429313363       14.4136532569      -12.8589024310  MEMB      67              0.0000000000
      9706        95  DOPC      C35            -8.1332386605       14.5176018532      -10.7332759038  MEMB      67              0.0000000000
      9707        95  DOPC      H5X            -8.9116108981       14.9068080330      -10.0414156801  MEMB      67              0.0000000000
      9708        95  DOPC      H5Y            -7.2152820610       15.1229543532      -10.5611167004  MEMB      67              0.0000000000
      9709        95  DOPC      C36            -7.8121227429       13.0553963553      -10.3827185233  MEMB      67              0.0000000000
      9710        95  DOPC      H6X            -8.7727923028       12.5109180836      -10.2334488481  MEMB      67              0.0000000000
      9711        95  DOPC      H6Y            -7.2675846223       12.5718062052      -11.2245163652  MEMB      67              0.0000000000
      9712        95  DOPC      C37            -6.9553215111       12.9310130664       -9.1117144165  MEMB      67              0.0000000000
      9713        95  DOPC      H7X            -7.3318363727       13.6725999073       -8.3783167087  MEMB      67              0.0000000000
      9714        95  DOPC      H7Y            -7.0922337042       11.9147571105       -8.6779323048  MEMB      67              0.0000000000
      9715        95  DOPC      C38            -5.4491749034       13.1508615612       -9.3504168298  MEMB      67              0.0000000000
      9716        95  DOPC      H8X            -5.3182075567       14.0611797583       -9.9759287013  MEMB      67              0.0000000000
      9717        95  DOPC      H8Y            -5.0641837257       12.2930722511       -9.9466651747  MEMB      67              0.0000000000
      9718        95  DOPC      C39            -4.6869464695       13.3181691550       -8.0594183584  MEMB      67              0.0000000000
      9719        95  DOPC      H9X            -4.5409433897       14.3638043340       -7.7516136801  MEMB      67              0.0000000000
      9720        95  DOPC      C310           -4.2011518368       12.3356983852       -7.2800372761  MEMB      67              0.0000000000
      9721        95  DOPC      H10X           -3.7372305350       12.6032521179       -6.3178377816  MEMB      67              0.0000000000
      9722        95  DOPC      C311           -4.3133399398       10.8521237484       -7.5194992972  MEMB      67              0.0000000000
      9723        95  DOPC      H11X           -3.3464672658       10.4551658588       -7.8994791882  MEMB      67              0.0000000000
      9724        95  DOPC      H11Y           -5.0896642027       10.6148752065       -8.2812684275  MEMB      67              0.0000000000
      9725        95  DOPC      C312           -4.6724732360       10.1163509280       -6.2110830178  MEMB      67              0.0000000000
      9726        95  DOPC      H12X           -3.8833763197       10.3087743394       -5.4499181233  MEMB      67              0.0000000000
      9727        95  DOPC      H12Y           -4.6917424374        9.0211420667       -6.4079081801  MEMB      67              0.0000000000
      9728        95  DOPC      C313           -6.0396966184       10.5373334645       -5.6485769553  MEMB      67              0.0000000000
      9729        95  DOPC      H13X           -6.0549846131       11.6389840900       -5.5103253464  MEMB      67              0.0000000000
      9730        95  DOPC      H13Y           -6.8199395564       10.2799502695       -6.3985099393  MEMB      67              0.0000000000
      9731        95  DOPC      C314           -6.4177301032        9.8955212166       -4.3073534224  MEMB      67              0.0000000000
      9732        95  DOPC      H14X           -7.4312014288       10.2669411144       -4.0266540728  MEMB      67              0.0000000000
      9733        95  DOPC      H14Y           -6.4882936304        8.7949252382       -4.4374423656  MEMB      67              0.0000000000
      9734        95  DOPC      C315           -5.4556496343       10.2276502231       -3.1545914675  MEMB      67              0.0000000000
      9735        95  DOPC      H15X           -5.2965257038       11.3277856277       -3.1207622146  MEMB      67              0.0000000000
      9736        95  DOPC      H15Y           -4.4638699841        9.7582068221       -3.3359553568  MEMB      67              0.0000000000
      9737        95  DOPC      C316           -5.9964281107        9.7600746464       -1.7953377919  MEMB      67              0.0000000000
      9738        95  DOPC      H16X           -5.3360684187       10.1432655419       -0.9856092910  MEMB      67              0.0000000000
      9739        95  DOPC      H16Y           -7.0087813254       10.1919529257       -1.6331892840  MEMB      67              0.0000000000
      9740        95  DOPC      C317           -6.0810835894        8.2324657599       -1.6935967303  MEMB      67              0.0000000000
      9741        95  DOPC      H17X           -6.7879685295        7.8546651309       -2.4665907444  MEMB      67              0.0000000000
      9742        95  DOPC      H17Y           -5.0748971239        7.8136326330       -1.9246133035  MEMB      67              0.0000000000
      9743        95  DOPC      C318           -6.5395931148        7.7274396639       -0.3249214812  MEMB      67              0.0000000000
      9744        95  DOPC      H18X           -6.5444369137        6.6154494300       -0.3058204439  MEMB      67              0.0000000000
      9745        95  DOPC      H18Y           -5.8583393846        8.0910853856        0.4736789545  MEMB      67              0.0000000000
      9746        95  DOPC      H18Z           -7.5683146255        8.0869923462       -0.1060525089  MEMB      67              0.0000000000
      9747        96  DOPC      N              -3.4949297747      -10.8766085602      -20.0851241895  MEMB      68              0.0000000000
      9748        96  DOPC      C12            -4.0514276901      -10.8016034396      -18.6656015406  MEMB      68              0.0000000000
      9749        96  DOPC      H12A           -3.5009166805      -10.0601353560      -18.1051445141  MEMB      68              0.0000000000
      9750        96  DOPC      H12B           -3.8917700194      -11.7683545824      -18.1914693239  MEMB      68              0.0000000000
      9751        96  DOPC      C13            -4.0889330012      -12.0633293724      -20.7736961528  MEMB      68              0.0000000000
      9752        96  DOPC      H13A           -3.7557398200      -12.9989300907      -20.3431473806  MEMB      68              0.0000000000
      9753        96  DOPC      H13B           -5.1731641750      -12.0618478701      -20.6195407766  MEMB      68              0.0000000000
      9754        96  DOPC      H13C           -3.9201747104      -12.0651864158      -21.8407583577  MEMB      68              0.0000000000
      9755        96  DOPC      C14            -2.0133149237      -11.0473351791      -20.0715879206  MEMB      68              0.0000000000
      9756        96  DOPC      H14A           -1.5338312502      -10.2678496921      -19.4891279128  MEMB      68              0.0000000000
      9757        96  DOPC      H14B           -1.7254850380      -12.0140871190      -19.6543761276  MEMB      68              0.0000000000
      9758        96  DOPC      H14C           -1.6290702990      -10.9861517723      -21.0858873745  MEMB      68              0.0000000000
      9759        96  DOPC      C15            -3.8731303186       -9.6625445316      -20.8545650149  MEMB      68              0.0000000000
      9760        96  DOPC      H15A           -3.4952447693       -9.7186185235      -21.8735968126  MEMB      68              0.0000000000
      9761        96  DOPC      H15B           -3.5227779759       -8.7400490854      -20.4128849461  MEMB      68              0.0000000000
      9762        96  DOPC      H15C           -4.9554947590       -9.6136817611      -20.9466677756  MEMB      68              0.0000000000
      9763        96  DOPC      C11            -5.5677940417      -10.5231100030      -18.5231742047  MEMB      68              0.0000000000
      9764        96  DOPC      H11A           -5.8174854097      -10.3908382817      -17.4457293497  MEMB      68              0.0000000000
      9765        96  DOPC      H11B           -5.8460135342       -9.5848339796      -19.0564305516  MEMB      68              0.0000000000
      9766        96  DOPC      P              -7.7222351431      -11.7018830072      -19.5569781544  MEMB      68              0.0000000000
      9767        96  DOPC      O13            -7.9454338218      -13.0217074240      -20.1847595156  MEMB      68              0.0000000000
      9768        96  DOPC      O14            -7.9886983560      -10.5650003458      -20.4605160939  MEMB      68              0.0000000000
      9769        96  DOPC      O12            -6.2516608976      -11.6519616741      -19.0222102226  MEMB      68              0.0000000000
      9770        96  DOPC      O11            -8.5978722246      -11.5740515482      -18.2111480827  MEMB      68              0.0000000000
      9771        96  DOPC      C1             -9.4803265031      -10.4878733107      -17.9209920617  MEMB      68              0.0000000000
      9772        96  DOPC      HA            -10.4147997059      -10.6645901009      -18.4881744508  MEMB      68              0.0000000000
      9773        96  DOPC      HB             -9.0164963771       -9.5322211650      -18.2473690436  MEMB      68              0.0000000000
      9774        96  DOPC      C2             -9.9905561728      -10.2677386002      -16.4264167743  MEMB      68              0.0000000000
      9775        96  DOPC      HS            -10.9603971809       -9.7293607351      -16.5066474005  MEMB      68              0.0000000000
      9776        96  DOPC      O21            -9.0367784437       -9.4327858539      -15.7215413573  MEMB      68              0.0000000000
      9777        96  DOPC      C21            -9.2945880796       -9.0347610954      -14.4574290977  MEMB      68              0.0000000000
      9778        96  DOPC      O22           -10.3551060002       -9.1854769318      -13.8832770650  MEMB      68              0.0000000000
      9779        96  DOPC      C22            -8.0452561229       -8.2567332472      -13.9713631696  MEMB      68              0.0000000000
      9780        96  DOPC      H2R            -7.8584061561       -7.4621717890      -14.7248491961  MEMB      68              0.0000000000
      9781        96  DOPC      H2S            -7.2025009367       -8.9775914863      -14.0150368155  MEMB      68              0.0000000000
      9782        96  DOPC      C3            -10.2538540116      -11.5786393476      -15.6191022356  MEMB      68              0.0000000000
      9783        96  DOPC      HX            -10.6960617584      -12.3618394700      -16.2822468359  MEMB      68              0.0000000000
      9784        96  DOPC      HY            -11.0254162678      -11.3541740522      -14.8464315539  MEMB      68              0.0000000000
      9785        96  DOPC      O31            -9.0494478770      -11.9811752466      -14.9430923744  MEMB      68              0.0000000000
      9786        96  DOPC      C31            -8.3220688032      -12.8310860964      -15.6389143737  MEMB      68              0.0000000000
      9787        96  DOPC      O32            -8.7193124681      -13.7070140789      -16.3770305132  MEMB      68              0.0000000000
      9788        96  DOPC      C32            -6.8748688657      -12.3153231642      -15.6008968573  MEMB      68              0.0000000000
      9789        96  DOPC      H2X            -6.5689086137      -12.3031391452      -16.6665481169  MEMB      68              0.0000000000
      9790        96  DOPC      H2Y            -6.8495188376      -11.2805158359      -15.2085006188  MEMB      68              0.0000000000
      9791        96  DOPC      C23            -8.0583736523       -7.5729903320      -12.5713877745  MEMB      68              0.0000000000
      9792        96  DOPC      H3R            -8.7591003188       -6.7185243513      -12.5485900974  MEMB      68              0.0000000000
      9793        96  DOPC      H3S            -7.0502278347       -7.1383360078      -12.3803028844  MEMB      68              0.0000000000
      9794        96  DOPC      C24            -8.3944018571       -8.5050225866      -11.4092960059  MEMB      68              0.0000000000
      9795        96  DOPC      H4R            -9.3063807055       -9.0815991347      -11.6777384521  MEMB      68              0.0000000000
      9796        96  DOPC      H4S            -8.6513667594       -7.9101750489      -10.5049678759  MEMB      68              0.0000000000
      9797        96  DOPC      C25            -7.2276761961       -9.4180929385      -11.0358365756  MEMB      68              0.0000000000
      9798        96  DOPC      H5R            -6.9663617745       -9.2573077071       -9.9630808106  MEMB      68              0.0000000000
      9799        96  DOPC      H5S            -6.3229558667       -9.1584393955      -11.6309195963  MEMB      68              0.0000000000
      9800        96  DOPC      C26            -7.5459673939      -10.8931004637      -11.2462471629  MEMB      68              0.0000000000
      9801        96  DOPC      H6R            -6.6337687111      -11.4437684494      -10.9298356110  MEMB      68              0.0000000000
      9802        96  DOPC      H6S            -7.6916940343      -11.1117322603      -12.3266340558  MEMB      68              0.0000000000
      9803        96  DOPC      C27            -8.7818004605      -11.3686126105      -10.4562657985  MEMB      68              0.0000000000
      9804        96  DOPC      H7R            -9.6993135159      -10.8457241403      -10.8031147640  MEMB      68              0.0000000000
      9805        96  DOPC      H7S            -8.6715771167      -11.1227549665       -9.3794556493  MEMB      68              0.0000000000
      9806        96  DOPC      C28            -9.0717372739      -12.8651647894      -10.6352936607  MEMB      68              0.0000000000
      9807        96  DOPC      H8R            -9.5880322542      -12.9408013537      -11.6190614028  MEMB      68              0.0000000000
      9808        96  DOPC      H8S            -9.7935081154      -13.1901390320       -9.8575767666  MEMB      68              0.0000000000
      9809        96  DOPC      C29            -7.8927981843      -13.7876389915      -10.6805656216  MEMB      68              0.0000000000
      9810        96  DOPC      H9R            -7.9576970197      -14.5419688952      -11.4814837711  MEMB      68              0.0000000000
      9811        96  DOPC      C210           -6.8329760677      -13.8183276623       -9.8598359615  MEMB      68              0.0000000000
      9812        96  DOPC      H10R           -5.9935640599      -14.4180200069      -10.2156923211  MEMB      68              0.0000000000
      9813        96  DOPC      C211           -6.5248396414      -12.9482284476       -8.6648578557  MEMB      68              0.0000000000
      9814        96  DOPC      H11R           -6.8453913578      -11.9035407275       -8.8365732108  MEMB      68              0.0000000000
      9815        96  DOPC      H11S           -5.4229107755      -12.8852363069       -8.5261924705  MEMB      68              0.0000000000
      9816        96  DOPC      C212           -7.1591401902      -13.3793017411       -7.3266790968  MEMB      68              0.0000000000
      9817        96  DOPC      H12R           -6.9642171638      -12.5689094421       -6.5910303151  MEMB      68              0.0000000000
      9818        96  DOPC      H12S           -6.6639697871      -14.2945017158       -6.9377233981  MEMB      68              0.0000000000
      9819        96  DOPC      C213           -8.6770406296      -13.6130946072       -7.3784606853  MEMB      68              0.0000000000
      9820        96  DOPC      H13R           -8.8613204976      -14.5326052613       -7.9806910577  MEMB      68              0.0000000000
      9821        96  DOPC      H13S           -9.1872220060      -12.7630506350       -7.8773120282  MEMB      68              0.0000000000
      9822        96  DOPC      C214           -9.2851524290      -13.7915740957       -5.9879931282  MEMB      68              0.0000000000
      9823        96  DOPC      H14R           -8.5773293294      -14.4084833825       -5.3963283926  MEMB      68              0.0000000000
      9824        96  DOPC      H14S          -10.2473711597      -14.3453449648       -6.0640967397  MEMB      68              0.0000000000
      9825        96  DOPC      C215           -9.5352860642      -12.4692546509       -5.2522821740  MEMB      68              0.0000000000
      9826        96  DOPC      H15R          -10.3269048448      -11.8876031010       -5.7743516376  MEMB      68              0.0000000000
      9827        96  DOPC      H15S           -8.6037169141      -11.8607658838       -5.2624500220  MEMB      68              0.0000000000
      9828        96  DOPC      C216           -9.9439486686      -12.7119275733       -3.7984930101  MEMB      68              0.0000000000
      9829        96  DOPC      H16R           -9.8024610510      -11.7856755936       -3.2002475234  MEMB      68              0.0000000000
      9830        96  DOPC      H16S           -9.2745117107      -13.5002055202       -3.3854952360  MEMB      68              0.0000000000
      9831        96  DOPC      C217          -11.3891626829      -13.1853427734       -3.6729159508  MEMB      68              0.0000000000
      9832        96  DOPC      H17R          -11.4128751416      -14.2331002039       -4.0492572263  MEMB      68              0.0000000000
      9833        96  DOPC      H17S          -12.0340427321      -12.5772142931       -4.3468529099  MEMB      68              0.0000000000
      9834        96  DOPC      C218          -11.9562278602      -13.1223680766       -2.2515607418  MEMB      68              0.0000000000
      9835        96  DOPC      H18R          -13.0024684077      -13.4920070679       -2.2245559681  MEMB      68              0.0000000000
      9836        96  DOPC      H18S          -11.9640968500      -12.0795838658       -1.8752123719  MEMB      68              0.0000000000
      9837        96  DOPC      H18T          -11.3544499308      -13.7526055228       -1.5646193755  MEMB      68              0.0000000000
      9838        96  DOPC      C33            -5.8952063302      -13.2134341773      -14.8449255102  MEMB      68              0.0000000000
      9839        96  DOPC      H3X            -6.2704953467      -14.2400167089      -14.9523899358  MEMB      68              0.0000000000
      9840        96  DOPC      H3Y            -5.9328057654      -13.0058893342      -13.7566717894  MEMB      68              0.0000000000
      9841        96  DOPC      C34            -4.4793444894      -13.2359310629      -15.4505425836  MEMB      68              0.0000000000
      9842        96  DOPC      H4X            -4.5593682969      -13.3006089982      -16.5585909301  MEMB      68              0.0000000000
      9843        96  DOPC      H4Y            -3.9762393199      -14.1775282027      -15.1315592569  MEMB      68              0.0000000000
      9844        96  DOPC      C35            -3.5822951734      -12.0637225842      -15.0066398260  MEMB      68              0.0000000000
      9845        96  DOPC      H5X            -3.8905815202      -11.1361058583      -15.5354037469  MEMB      68              0.0000000000
      9846        96  DOPC      H5Y            -2.5314782611      -12.2933268319      -15.3003785847  MEMB      68              0.0000000000
      9847        96  DOPC      C36            -3.7089291815      -11.8566044092      -13.4921025858  MEMB      68              0.0000000000
      9848        96  DOPC      H6X            -4.6635384743      -11.3171154116      -13.2897903155  MEMB      68              0.0000000000
      9849        96  DOPC      H6Y            -3.7880373916      -12.8682624075      -13.0319195991  MEMB      68              0.0000000000
      9850        96  DOPC      C37            -2.5813016020      -11.1386806936      -12.7366353854  MEMB      68              0.0000000000
      9851        96  DOPC      H7X            -1.5942896042      -11.5889961555      -12.9839260613  MEMB      68              0.0000000000
      9852        96  DOPC      H7Y            -2.5600147997      -10.0673698418      -13.0297893234  MEMB      68              0.0000000000
      9853        96  DOPC      C38            -2.8547126021      -11.2986798277      -11.2219617680  MEMB      68              0.0000000000
      9854        96  DOPC      H8X            -2.6677339260      -12.3638920258      -10.9606095072  MEMB      68              0.0000000000
      9855        96  DOPC      H8Y            -3.9539572053      -11.1543797377      -11.0974104758  MEMB      68              0.0000000000
      9856        96  DOPC      C39            -2.0921116876      -10.4206749189      -10.2590445483  MEMB      68              0.0000000000
      9857        96  DOPC      H9X            -0.9945756721      -10.4220554984      -10.3564144649  MEMB      68              0.0000000000
      9858        96  DOPC      C310           -2.6675535708       -9.6484064251       -9.3177268560  MEMB      68              0.0000000000
      9859        96  DOPC      H10X           -2.0378709998       -9.0615389698       -8.6303312080  MEMB      68              0.0000000000
      9860        96  DOPC      C311           -4.1548229765       -9.5424382523       -9.0884005082  MEMB      68              0.0000000000
      9861        96  DOPC      H11X           -4.6331318522      -10.5367667243       -8.9668045385  MEMB      68              0.0000000000
      9862        96  DOPC      H11Y           -4.6142328052       -9.0912406724       -9.9979149533  MEMB      68              0.0000000000
      9863        96  DOPC      C312           -4.5336271420       -8.6337048236       -7.9053848247  MEMB      68              0.0000000000
      9864        96  DOPC      H12X           -5.5865628071       -8.2915418508       -8.0400505935  MEMB      68              0.0000000000
      9865        96  DOPC      H12Y           -3.8711903062       -7.7461716332       -7.9157395587  MEMB      68              0.0000000000
      9866        96  DOPC      C313           -4.3926543252       -9.2183368648       -6.5059574119  MEMB      68              0.0000000000
      9867        96  DOPC      H13X           -3.3120290458       -9.3703517913       -6.2855942000  MEMB      68              0.0000000000
      9868        96  DOPC      H13Y           -4.7876618849       -8.4628693987       -5.7865001316  MEMB      68              0.0000000000
      9869        96  DOPC      C314           -5.1466448089      -10.5301186797       -6.3105975333  MEMB      68              0.0000000000
      9870        96  DOPC      H14X           -6.1579046618      -10.4468420718       -6.7696549306  MEMB      68              0.0000000000
      9871        96  DOPC      H14Y           -4.5967142828      -11.3356239463       -6.8478429678  MEMB      68              0.0000000000
      9872        96  DOPC      C315           -5.2920011050      -10.9121390863       -4.8334270811  MEMB      68              0.0000000000
      9873        96  DOPC      H15X           -5.5057187232      -12.0019385159       -4.7803768489  MEMB      68              0.0000000000
      9874        96  DOPC      H15Y           -6.1652792197      -10.3750492647       -4.3986077720  MEMB      68              0.0000000000
      9875        96  DOPC      C316           -4.0497691438      -10.5643519720       -3.9992402810  MEMB      68              0.0000000000
      9876        96  DOPC      H16X           -3.1472715486      -11.0052871998       -4.4782502023  MEMB      68              0.0000000000
      9877        96  DOPC      H16Y           -3.9181333129       -9.4589745690       -3.9743058524  MEMB      68              0.0000000000
      9878        96  DOPC      C317           -4.1416366478      -11.0402971394       -2.5515581683  MEMB      68              0.0000000000
      9879        96  DOPC      H17X           -3.2623296620      -10.6444676375       -1.9929386977  MEMB      68              0.0000000000
      9880        96  DOPC      H17Y           -5.0589272794      -10.6078898128       -2.0988259272  MEMB      68              0.0000000000
      9881        96  DOPC      C318           -4.1780860823      -12.5537505628       -2.4080855081  MEMB      68              0.0000000000
      9882        96  DOPC      H18X           -4.0844211296      -12.8440638405       -1.3392672485  MEMB      68              0.0000000000
      9883        96  DOPC      H18Y           -5.1316542673      -12.9702430498       -2.7987754083  MEMB      68              0.0000000000
      9884        96  DOPC      H18Z           -3.3377633016      -13.0091439396       -2.9769547451  MEMB      68              0.0000000000
      9885        97  DOPC      N               9.8167907240       -7.1600932295      -19.0517756663  MEMB      69              0.0000000000
      9886        97  DOPC      C12            10.8837870436       -6.7604085022      -18.0408169177  MEMB      69              0.0000000000
      9887        97  DOPC      H12A           11.6237057706       -7.5525437038      -17.9952751503  MEMB      69              0.0000000000
      9888        97  DOPC      H12B           10.4259845206       -6.6875760700      -17.0582138795  MEMB      69              0.0000000000
      9889        97  DOPC      C13             8.6674717911       -6.1925092704      -19.0135006815  MEMB      69              0.0000000000
      9890        97  DOPC      H13A            8.1945018174       -6.1781407518      -18.0384362390  MEMB      69              0.0000000000
      9891        97  DOPC      H13B            9.0026513356       -5.1868555653      -19.2417394010  MEMB      69              0.0000000000
      9892        97  DOPC      H13C            7.8890073268       -6.4609004381      -19.7220701069  MEMB      69              0.0000000000
      9893        97  DOPC      C14             9.2853438843       -8.5271773074      -18.7583381396  MEMB      69              0.0000000000
      9894        97  DOPC      H14A           10.0665948424       -9.2701813206      -18.6251404627  MEMB      69              0.0000000000
      9895        97  DOPC      H14B            8.6739305583       -8.5351871517      -17.8631890463  MEMB      69              0.0000000000
      9896        97  DOPC      H14C            8.6699063566       -8.8751210584      -19.5852387934  MEMB      69              0.0000000000
      9897        97  DOPC      C15            10.4042500356       -7.1796469339      -20.4285303326  MEMB      69              0.0000000000
      9898        97  DOPC      H15A           11.2575607833       -7.8409573860      -20.4837277437  MEMB      69              0.0000000000
      9899        97  DOPC      H15B           10.7951488852       -6.1871904628      -20.6712560256  MEMB      69              0.0000000000
      9900        97  DOPC      H15C            9.6884363380       -7.5110340635      -21.1630319294  MEMB      69              0.0000000000
      9901        97  DOPC      C11            11.6417344973       -5.4254157311      -18.2864364076  MEMB      69              0.0000000000
      9902        97  DOPC      H11A           10.8897631620       -4.6026416686      -18.2001812361  MEMB      69              0.0000000000
      9903        97  DOPC      H11B           12.3882223177       -5.3031937980      -17.4641013755  MEMB      69              0.0000000000
      9904        97  DOPC      P              13.0401550802       -4.0130729224      -19.9552193063  MEMB      69              0.0000000000
      9905        97  DOPC      O13            12.3654882938       -2.9293046793      -19.2166907266  MEMB      69              0.0000000000
      9906        97  DOPC      O14            13.0007090463       -3.8711165048      -21.4312108853  MEMB      69              0.0000000000
      9907        97  DOPC      O12            12.3048265222       -5.3792642965      -19.5566974397  MEMB      69              0.0000000000
      9908        97  DOPC      O11            14.5357006412       -4.1780808964      -19.4677002149  MEMB      69              0.0000000000
      9909        97  DOPC      C1             14.9438690118       -3.5868481724      -18.2261506157  MEMB      69              0.0000000000
      9910        97  DOPC      HA             14.1545043838       -3.6477324842      -17.4378101104  MEMB      69              0.0000000000
      9911        97  DOPC      HB             15.1768350002       -2.5155483435      -18.3851455599  MEMB      69              0.0000000000
      9912        97  DOPC      C2             16.1835258380       -4.3263787730      -17.6770865584  MEMB      69              0.0000000000
      9913        97  DOPC      HS             16.8938710754       -4.4948301321      -18.5211733670  MEMB      69              0.0000000000
      9914        97  DOPC      O21            15.7151625091       -5.5323984778      -17.0646086109  MEMB      69              0.0000000000
      9915        97  DOPC      C21            16.0613192911       -6.6509284753      -17.6374723867  MEMB      69              0.0000000000
      9916        97  DOPC      O22            16.5818485633       -6.7781072806      -18.7261996935  MEMB      69              0.0000000000
      9917        97  DOPC      C22            15.7159846841       -7.8368941487      -16.7287141269  MEMB      69              0.0000000000
      9918        97  DOPC      H2R            16.6200687972       -8.0545912469      -16.1210442458  MEMB      69              0.0000000000
      9919        97  DOPC      H2S            15.4976829990       -8.7129800750      -17.3689588090  MEMB      69              0.0000000000
      9920        97  DOPC      C3             16.9533664126       -3.5565304660      -16.5791216145  MEMB      69              0.0000000000
      9921        97  DOPC      HX             17.3776744265       -2.6153018023      -16.9582115140  MEMB      69              0.0000000000
      9922        97  DOPC      HY             17.8456843985       -4.1617572112      -16.2797873769  MEMB      69              0.0000000000
      9923        97  DOPC      O31            16.0684940242       -3.2466559003      -15.4859275921  MEMB      69              0.0000000000
      9924        97  DOPC      C31            16.0298547027       -4.2386690811      -14.5816212079  MEMB      69              0.0000000000
      9925        97  DOPC      O32            16.7272732765       -5.2349297080      -14.6040712879  MEMB      69              0.0000000000
      9926        97  DOPC      C32            15.0982517467       -3.8569030169      -13.4324540344  MEMB      69              0.0000000000
      9927        97  DOPC      H2X            15.4621553805       -4.4136631611      -12.5427053751  MEMB      69              0.0000000000
      9928        97  DOPC      H2Y            15.2014732435       -2.7765901939      -13.2125277663  MEMB      69              0.0000000000
      9929        97  DOPC      C23            14.5362255090       -7.5797045106      -15.7709987295  MEMB      69              0.0000000000
      9930        97  DOPC      H3R            13.5953284806       -7.5309929484      -16.3646345155  MEMB      69              0.0000000000
      9931        97  DOPC      H3S            14.6507908592       -6.6025748754      -15.2636363259  MEMB      69              0.0000000000
      9932        97  DOPC      C24            14.3961044533       -8.6595682705      -14.6903574288  MEMB      69              0.0000000000
      9933        97  DOPC      H4R            14.5355788418       -9.6633863039      -15.1476489227  MEMB      69              0.0000000000
      9934        97  DOPC      H4S            13.3502560647       -8.5729980854      -14.3297858464  MEMB      69              0.0000000000
      9935        97  DOPC      C25            15.3103958243       -8.5688757145      -13.4487842002  MEMB      69              0.0000000000
      9936        97  DOPC      H5R            16.3685079379       -8.6476996950      -13.7847885880  MEMB      69              0.0000000000
      9937        97  DOPC      H5S            15.1022898419       -9.4327472093      -12.7784880211  MEMB      69              0.0000000000
      9938        97  DOPC      C26            15.1889615721       -7.2754532759      -12.6208722081  MEMB      69              0.0000000000
      9939        97  DOPC      H6R            15.3304611198       -6.4547543258      -13.3322626914  MEMB      69              0.0000000000
      9940        97  DOPC      H6S            16.0257871910       -7.2048470134      -11.8945065688  MEMB      69              0.0000000000
      9941        97  DOPC      C27            13.8564445855       -7.0029697190      -11.9042106602  MEMB      69              0.0000000000
      9942        97  DOPC      H7R            13.0252935958       -7.1254863702      -12.6332310454  MEMB      69              0.0000000000
      9943        97  DOPC      H7S            13.8388046757       -5.9405713534      -11.5686409827  MEMB      69              0.0000000000
      9944        97  DOPC      C28            13.5995606338       -7.9040402933      -10.6931055576  MEMB      69              0.0000000000
      9945        97  DOPC      H8R            13.8155136374       -8.9427679711      -11.0060008608  MEMB      69              0.0000000000
      9946        97  DOPC      H8S            12.5099964224       -7.8638359260      -10.4637399164  MEMB      69              0.0000000000
      9947        97  DOPC      C29            14.4331990378       -7.5426369061       -9.4935707354  MEMB      69              0.0000000000
      9948        97  DOPC      H9R            15.4272044176       -8.0073520667       -9.4616314375  MEMB      69              0.0000000000
      9949        97  DOPC      C210           14.0753831586       -6.6859198038       -8.5238287096  MEMB      69              0.0000000000
      9950        97  DOPC      H10R           14.7668954725       -6.5025580826       -7.6861649986  MEMB      69              0.0000000000
      9951        97  DOPC      C211           12.7725466999       -5.9309711924       -8.4678910097  MEMB      69              0.0000000000
      9952        97  DOPC      H11R           12.2902245452       -5.9095016270       -9.4723679112  MEMB      69              0.0000000000
      9953        97  DOPC      H11S           12.9609804119       -4.8683619081       -8.1997607517  MEMB      69              0.0000000000
      9954        97  DOPC      C212           11.7495910678       -6.5228111275       -7.4812660926  MEMB      69              0.0000000000
      9955        97  DOPC      H12R           11.4224676783       -7.5055289245       -7.8842972918  MEMB      69              0.0000000000
      9956        97  DOPC      H12S           10.8502836821       -5.8716985541       -7.4351479486  MEMB      69              0.0000000000
      9957        97  DOPC      C213           12.2533861624       -6.7162729161       -6.0443186529  MEMB      69              0.0000000000
      9958        97  DOPC      H13R           12.8706232515       -7.6407683915       -6.0264182449  MEMB      69              0.0000000000
      9959        97  DOPC      H13S           11.3876615883       -6.9035060911       -5.3680537903  MEMB      69              0.0000000000
      9960        97  DOPC      C214           13.0485697551       -5.5307005578       -5.4750475254  MEMB      69              0.0000000000
      9961        97  DOPC      H14R           12.3448292685       -4.6850622813       -5.3047079133  MEMB      69              0.0000000000
      9962        97  DOPC      H14S           13.8312336500       -5.1729138604       -6.1782761712  MEMB      69              0.0000000000
      9963        97  DOPC      C215           13.7372794267       -5.8996703477       -4.1593614310  MEMB      69              0.0000000000
      9964        97  DOPC      H15R           12.9928456556       -6.4187923769       -3.5125653555  MEMB      69              0.0000000000
      9965        97  DOPC      H15S           14.0477403930       -4.9696256085       -3.6373583507  MEMB      69              0.0000000000
      9966        97  DOPC      C216           14.9704194179       -6.7978400875       -4.3467961767  MEMB      69              0.0000000000
      9967        97  DOPC      H16R           15.8517507208       -6.1775796013       -4.6168643034  MEMB      69              0.0000000000
      9968        97  DOPC      H16S           14.8038005330       -7.5000800991       -5.1947193658  MEMB      69              0.0000000000
      9969        97  DOPC      C217           15.2732680266       -7.6539918916       -3.1126625177  MEMB      69              0.0000000000
      9970        97  DOPC      H17R           16.2180945292       -8.2059674704       -3.2956763740  MEMB      69              0.0000000000
      9971        97  DOPC      H17S           14.4504739332       -8.4023668654       -3.0254299138  MEMB      69              0.0000000000
      9972        97  DOPC      C218           15.3865106281       -6.9000766052       -1.7892249486  MEMB      69              0.0000000000
      9973        97  DOPC      H18R           14.5624173994       -6.1681520549       -1.6808257121  MEMB      69              0.0000000000
      9974        97  DOPC      H18S           16.3545271386       -6.3604159834       -1.7215871531  MEMB      69              0.0000000000
      9975        97  DOPC      H18T           15.3236016139       -7.5973047189       -0.9276490345  MEMB      69              0.0000000000
      9976        97  DOPC      C33            13.6205962871       -4.1978281925      -13.7282807755  MEMB      69              0.0000000000
      9977        97  DOPC      H3X            13.0816865114       -4.3062634921      -12.7599380746  MEMB      69              0.0000000000
      9978        97  DOPC      H3Y            13.5406226095       -5.1755951519      -14.2447811729  MEMB      69              0.0000000000
      9979        97  DOPC      C34            12.9534269946       -3.0872005309      -14.5477007683  MEMB      69              0.0000000000
      9980        97  DOPC      H4X            13.5756671466       -2.8844797907      -15.4469439730  MEMB      69              0.0000000000
      9981        97  DOPC      H4Y            12.9649207152       -2.1583556750      -13.9321133271  MEMB      69              0.0000000000
      9982        97  DOPC      C35            11.5086383202       -3.3568136391      -15.0190828786  MEMB      69              0.0000000000
      9983        97  DOPC      H5X            11.5246533590       -4.0677141264      -15.8698062920  MEMB      69              0.0000000000
      9984        97  DOPC      H5Y            11.1140797691       -2.3842610264      -15.4068914245  MEMB      69              0.0000000000
      9985        97  DOPC      C36            10.5420245042       -3.8766929369      -13.9405427992  MEMB      69              0.0000000000
      9986        97  DOPC      H6X             9.5323611328       -3.9718565623      -14.4024459612  MEMB      69              0.0000000000
      9987        97  DOPC      H6Y            10.8432047715       -4.8808535939      -13.5679889397  MEMB      69              0.0000000000
      9988        97  DOPC      C37            10.4721185398       -2.8935073299      -12.7716186275  MEMB      69              0.0000000000
      9989        97  DOPC      H7X            11.4424611262       -2.8961410494      -12.2350183779  MEMB      69              0.0000000000
      9990        97  DOPC      H7Y            10.3808252418       -1.8838342895      -13.2200493858  MEMB      69              0.0000000000
      9991        97  DOPC      C38             9.2941879172       -3.1009798711      -11.8001021316  MEMB      69              0.0000000000
      9992        97  DOPC      H8X             8.4064915843       -3.4644632126      -12.3635858330  MEMB      69              0.0000000000
      9993        97  DOPC      H8Y             8.9909777587       -2.1068255071      -11.4057502934  MEMB      69              0.0000000000
      9994        97  DOPC      C39             9.5876692278       -3.9907146945      -10.6219921026  MEMB      69              0.0000000000
      9995        97  DOPC      H9X             8.9455605547       -4.8807185933      -10.5402577751  MEMB      69              0.0000000000
      9996        97  DOPC      C310           10.5359849557       -3.7947871724       -9.6903578246  MEMB      69              0.0000000000
      9997        97  DOPC      H10X           10.6125810341       -4.5210136843       -8.8776004634  MEMB      69              0.0000000000
      9998        97  DOPC      C311           11.5259642486       -2.6625441742       -9.5975142830  MEMB      69              0.0000000000
      9999        97  DOPC      H11X           11.3305249797       -1.8874179552      -10.3659458395  MEMB      69              0.0000000000
     10000        97  DOPC      H11Y           12.5435607668       -3.0584109768       -9.8173825382  MEMB      69              0.0000000000
     10001        97  DOPC      C312           11.5890383357       -1.9358940842       -8.2413807816  MEMB      69              0.0000000000
     10002        97  DOPC      H12X           11.9080093874       -2.6590897758       -7.4622047151  MEMB      69              0.0000000000
     10003        97  DOPC      H12Y           10.5840110364       -1.5663874784       -7.9637961249  MEMB      69              0.0000000000
     10004        97  DOPC      C313           12.6042207624       -0.7786882110       -8.3131503241  MEMB      69              0.0000000000
     10005        97  DOPC      H13X           13.5908313490       -1.2494958005       -8.1385367434  MEMB      69              0.0000000000
     10006        97  DOPC      H13Y           12.6151743961       -0.3559210311       -9.3436278257  MEMB      69              0.0000000000
     10007        97  DOPC      C314           12.4668028014        0.3876527125       -7.3198474462  MEMB      69              0.0000000000
     10008        97  DOPC      H14X           12.2870474998        1.3258708554       -7.8971726302  MEMB      69              0.0000000000
     10009        97  DOPC      H14Y           11.6033670393        0.2764218534       -6.6414106750  MEMB      69              0.0000000000
     10010        97  DOPC      C315           13.7511716346        0.6259849904       -6.5297084246  MEMB      69              0.0000000000
     10011        97  DOPC      H15X           13.6665289384        1.6012011884       -6.0051174845  MEMB      69              0.0000000000
     10012        97  DOPC      H15Y           14.5851194932        0.7538457374       -7.2480619029  MEMB      69              0.0000000000
     10013        97  DOPC      C316           14.0849734473       -0.4169933518       -5.4505304525  MEMB      69              0.0000000000
     10014        97  DOPC      H16X           15.1317153821       -0.7777713097       -5.5546136619  MEMB      69              0.0000000000
     10015        97  DOPC      H16Y           14.0234522859        0.1843868878       -4.5170840763  MEMB      69              0.0000000000
     10016        97  DOPC      C317           13.0788432422       -1.5478820876       -5.1791217618  MEMB      69              0.0000000000
     10017        97  DOPC      H17X           12.0489040300       -1.1403604921       -5.2698385625  MEMB      69              0.0000000000
     10018        97  DOPC      H17Y           13.1862283799       -2.3853733869       -5.9026905939  MEMB      69              0.0000000000
     10019        97  DOPC      C318           13.1682990142       -2.0809792475       -3.7527885558  MEMB      69              0.0000000000
     10020        97  DOPC      H18X           14.0565725431       -2.7282684637       -3.6462239766  MEMB      69              0.0000000000
     10021        97  DOPC      H18Y           13.2429976992       -1.2374321320       -3.0315109131  MEMB      69              0.0000000000
     10022        97  DOPC      H18Z           12.2634285994       -2.6759837252       -3.5060314304  MEMB      69              0.0000000000
     10023        98  DOPC      N               9.5695235714        4.0247224565      -21.5414373755  MEMB      70              0.0000000000
     10024        98  DOPC      C12             9.1428982046        4.8893289415      -20.3578251521  MEMB      70              0.0000000000
     10025        98  DOPC      H12A            8.3981094224        5.6077535170      -20.6665926902  MEMB      70              0.0000000000
     10026        98  DOPC      H12B           10.0120892147        5.4317751313      -20.0026352002  MEMB      70              0.0000000000
     10027        98  DOPC      C13            10.7897167212        3.2783599315      -21.1322207964  MEMB      70              0.0000000000
     10028        98  DOPC      H13A           11.1032447149        2.5664096837      -21.8775437703  MEMB      70              0.0000000000
     10029        98  DOPC      H13B           11.5983075858        3.9597950184      -20.9186206674  MEMB      70              0.0000000000
     10030        98  DOPC      H13C           10.5824765371        2.7687293892      -20.1837668037  MEMB      70              0.0000000000
     10031        98  DOPC      C14             9.8451828605        4.8851866999      -22.7335394817  MEMB      70              0.0000000000
     10032        98  DOPC      H14A            8.9395532744        5.3982922100      -23.0338412613  MEMB      70              0.0000000000
     10033        98  DOPC      H14B           10.6096142120        5.6334184832      -22.5396413146  MEMB      70              0.0000000000
     10034        98  DOPC      H14C           10.1870291420        4.3194152075      -23.6012769701  MEMB      70              0.0000000000
     10035        98  DOPC      C15             8.4652994942        3.0594450547      -21.8392512236  MEMB      70              0.0000000000
     10036        98  DOPC      H15A            8.6262856396        2.4975021604      -22.7542262820  MEMB      70              0.0000000000
     10037        98  DOPC      H15B            7.5122270971        3.5825945316      -21.9464381937  MEMB      70              0.0000000000
     10038        98  DOPC      H15C            8.3736506101        2.3753132812      -20.9990240506  MEMB      70              0.0000000000
     10039        98  DOPC      C11             8.5901208400        4.1660582028      -19.1136592788  MEMB      70              0.0000000000
     10040        98  DOPC      H11A            8.2242623642        4.9626102220      -18.4167811556  MEMB      70              0.0000000000
     10041        98  DOPC      H11B            7.7139847248        3.5247355145      -19.3484293653  MEMB      70              0.0000000000
     10042        98  DOPC      P               9.8892041919        3.3388063495      -16.9919224489  MEMB      70              0.0000000000
     10043        98  DOPC      O13             9.9012137796        4.7433690722      -16.5208225906  MEMB      70              0.0000000000
     10044        98  DOPC      O14            11.0903721881        2.4927454444      -16.8207708775  MEMB      70              0.0000000000
     10045        98  DOPC      O12             9.6289084432        3.3754957367      -18.5532942693  MEMB      70              0.0000000000
     10046        98  DOPC      O11             8.5875911194        2.5750149544      -16.5095290261  MEMB      70              0.0000000000
     10047        98  DOPC      C1              7.4583619535        3.2523562452      -15.9601820130  MEMB      70              0.0000000000
     10048        98  DOPC      HA              6.5457872373        2.6475076192      -16.1618994890  MEMB      70              0.0000000000
     10049        98  DOPC      HB              7.3072636322        4.2598040319      -16.4153725267  MEMB      70              0.0000000000
     10050        98  DOPC      C2              7.5750158617        3.4007636331      -14.4216563853  MEMB      70              0.0000000000
     10051        98  DOPC      HS              8.4151492958        4.1128701540      -14.2361401509  MEMB      70              0.0000000000
     10052        98  DOPC      O21             7.7610316244        2.1140826042      -13.8231762279  MEMB      70              0.0000000000
     10053        98  DOPC      C21             8.9967541596        1.8545694641      -13.4744993066  MEMB      70              0.0000000000
     10054        98  DOPC      O22             9.9756025543        2.5596156904      -13.6109250880  MEMB      70              0.0000000000
     10055        98  DOPC      C22             9.0297468257        0.5121715964      -12.7857518638  MEMB      70              0.0000000000
     10056        98  DOPC      H2R             9.4372427379       -0.1905196038      -13.5343673643  MEMB      70              0.0000000000
     10057        98  DOPC      H2S             8.0042765571        0.1927373169      -12.5075810907  MEMB      70              0.0000000000
     10058        98  DOPC      C3              6.2818301158        3.9801134874      -13.7984053139  MEMB      70              0.0000000000
     10059        98  DOPC      HX              5.5065249919        3.1798556841      -13.8715489270  MEMB      70              0.0000000000
     10060        98  DOPC      HY              5.9264016766        4.8257389934      -14.4240428505  MEMB      70              0.0000000000
     10061        98  DOPC      O31             6.3291942397        4.4105406231      -12.4294554162  MEMB      70              0.0000000000
     10062        98  DOPC      C31             7.3857480075        4.5138999221      -11.6324139031  MEMB      70              0.0000000000
     10063        98  DOPC      O32             8.5528073033        4.3569006342      -11.8866314329  MEMB      70              0.0000000000
     10064        98  DOPC      C32             6.8515402128        4.8488653793      -10.2331592798  MEMB      70              0.0000000000
     10065        98  DOPC      H2X             5.7777914920        5.0075076138      -10.4260687327  MEMB      70              0.0000000000
     10066        98  DOPC      H2Y             6.9870061882        3.9612165439       -9.5850208796  MEMB      70              0.0000000000
     10067        98  DOPC      C23             9.9133555771        0.6174624918      -11.5315268277  MEMB      70              0.0000000000
     10068        98  DOPC      H3R            10.9143601070        1.0431542545      -11.7707560919  MEMB      70              0.0000000000
     10069        98  DOPC      H3S            10.1078938477       -0.4077448691      -11.1544474590  MEMB      70              0.0000000000
     10070        98  DOPC      C24             9.2317877387        1.4332152931      -10.4215571712  MEMB      70              0.0000000000
     10071        98  DOPC      H4R             8.1282656946        1.4282266547      -10.5757860100  MEMB      70              0.0000000000
     10072        98  DOPC      H4S             9.5882905918        2.4879951433      -10.4539095486  MEMB      70              0.0000000000
     10073        98  DOPC      C25             9.5220463879        0.7913084976       -9.0710480684  MEMB      70              0.0000000000
     10074        98  DOPC      H5R            10.6145853309        0.8336041177       -8.9323145521  MEMB      70              0.0000000000
     10075        98  DOPC      H5S             9.2506208359       -0.2878281909       -9.1449765598  MEMB      70              0.0000000000
     10076        98  DOPC      C26             8.7991863094        1.3704214865       -7.8474770196  MEMB      70              0.0000000000
     10077        98  DOPC      H6R             7.8098974349        1.7814943216       -8.1398064267  MEMB      70              0.0000000000
     10078        98  DOPC      H6S             9.4113774284        2.1911974964       -7.4096466572  MEMB      70              0.0000000000
     10079        98  DOPC      C27             8.6165560125        0.2477659083       -6.8101770310  MEMB      70              0.0000000000
     10080        98  DOPC      H7R             9.6249957047       -0.1809276802       -6.6310693070  MEMB      70              0.0000000000
     10081        98  DOPC      H7S             8.0210149363       -0.5612976486       -7.2719083324  MEMB      70              0.0000000000
     10082        98  DOPC      C28             7.9747085080        0.6402387088       -5.4682180650  MEMB      70              0.0000000000
     10083        98  DOPC      H8R             6.8664981449        0.6253534203       -5.5788109833  MEMB      70              0.0000000000
     10084        98  DOPC      H8S             8.2658016274        1.6853542905       -5.2312795675  MEMB      70              0.0000000000
     10085        98  DOPC      C29             8.4167948724       -0.3186944233       -4.3833240558  MEMB      70              0.0000000000
     10086        98  DOPC      H9R             7.8279253765       -1.2476311437       -4.3181759068  MEMB      70              0.0000000000
     10087        98  DOPC      C210            9.5000027881       -0.1743609993       -3.5900388035  MEMB      70              0.0000000000
     10088        98  DOPC      H10R            9.7456223067       -0.9752798047       -2.8745801476  MEMB      70              0.0000000000
     10089        98  DOPC      C211           10.4817779574        0.9759029607       -3.6314309090  MEMB      70              0.0000000000
     10090        98  DOPC      H11R            9.9887917010        1.9288378020       -3.9240261268  MEMB      70              0.0000000000
     10091        98  DOPC      H11S           11.2370353419        0.7620203049       -4.4219654191  MEMB      70              0.0000000000
     10092        98  DOPC      C212           11.2817336827        1.2125274682       -2.3273982529  MEMB      70              0.0000000000
     10093        98  DOPC      H12R           12.1578395676        1.8486147966       -2.5814734525  MEMB      70              0.0000000000
     10094        98  DOPC      H12S           11.6944773678        0.2438611838       -1.9649842001  MEMB      70              0.0000000000
     10095        98  DOPC      C213           10.5023346276        1.8971424944       -1.1865936228  MEMB      70              0.0000000000
     10096        98  DOPC      H13R           10.5862782799        1.2405367639       -0.2939912277  MEMB      70              0.0000000000
     10097        98  DOPC      H13S            9.4223006075        1.9209703364       -1.4449160471  MEMB      70              0.0000000000
     10098        98  DOPC      C214           11.0119148010        3.3179880203       -0.8191165334  MEMB      70              0.0000000000
     10099        98  DOPC      H14R           10.2579040563        4.0714550657       -1.1329491725  MEMB      70              0.0000000000
     10100        98  DOPC      H14S           11.9417023146        3.5148584761       -1.3900633487  MEMB      70              0.0000000000
     10101        98  DOPC      C215           11.3483380963        3.5228914566        0.6746269526  MEMB      70              0.0000000000
     10102        98  DOPC      H15R           11.6005943749        2.4930979522        0.9948379710  MEMB      70              0.0000000000
     10103        98  DOPC      H15S           10.4476690596        3.8337937715        1.2375813927  MEMB      70              0.0000000000
     10104        98  DOPC      C216           12.6126773396        4.3579720183        1.0281571855  MEMB      70              0.0000000000
     10105        98  DOPC      H16R           12.9922087922        4.8198243747        0.0976356568  MEMB      70              0.0000000000
     10106        98  DOPC      H16S           13.4127221121        3.6606232562        1.3508493358  MEMB      70              0.0000000000
     10107        98  DOPC      C217           12.5626621249        5.4516293638        2.1308963950  MEMB      70              0.0000000000
     10108        98  DOPC      H17R           12.6846603554        6.4233024516        1.6343782730  MEMB      70              0.0000000000
     10109        98  DOPC      H17S           13.5086234047        5.4704008054        2.7029195099  MEMB      70              0.0000000000
     10110        98  DOPC      C218           11.4021027124        5.4090248946        3.1401862958  MEMB      70              0.0000000000
     10111        98  DOPC      H18R           10.4239817325        5.6587926764        2.6762853597  MEMB      70              0.0000000000
     10112        98  DOPC      H18S           11.5701922619        6.1101250109        3.9868177120  MEMB      70              0.0000000000
     10113        98  DOPC      H18T           11.3361680642        4.3854613519        3.5464030690  MEMB      70              0.0000000000
     10114        98  DOPC      C33             7.2777304176        6.1539161647       -9.5036183690  MEMB      70              0.0000000000
     10115        98  DOPC      H3X             6.3640684266        6.5335614640       -8.9809427700  MEMB      70              0.0000000000
     10116        98  DOPC      H3Y             7.5725431616        6.9546703499      -10.2029369166  MEMB      70              0.0000000000
     10117        98  DOPC      C34             8.3397334262        5.9676477224       -8.4114550765  MEMB      70              0.0000000000
     10118        98  DOPC      H4X             9.2988506515        5.6684629785       -8.8815471471  MEMB      70              0.0000000000
     10119        98  DOPC      H4Y             8.0136124526        5.1317745072       -7.7498792545  MEMB      70              0.0000000000
     10120        98  DOPC      C35             8.4938933601        7.2396619127       -7.5481917651  MEMB      70              0.0000000000
     10121        98  DOPC      H5X             8.0533967380        7.0414263808       -6.5439647643  MEMB      70              0.0000000000
     10122        98  DOPC      H5Y             7.9203597666        8.0443725659       -8.0384439787  MEMB      70              0.0000000000
     10123        98  DOPC      C36             9.9127553256        7.8145987887       -7.4134716501  MEMB      70              0.0000000000
     10124        98  DOPC      H6X            10.5930334105        6.9596960040       -7.5709643550  MEMB      70              0.0000000000
     10125        98  DOPC      H6Y            10.1461591337        8.5579167595       -8.2021960973  MEMB      70              0.0000000000
     10126        98  DOPC      C37            10.2903937296        8.3150534320       -6.0083484808  MEMB      70              0.0000000000
     10127        98  DOPC      H7X             9.5842847860        7.8874710516       -5.2642549440  MEMB      70              0.0000000000
     10128        98  DOPC      H7Y            11.3057273771        7.8920665903       -5.8301083376  MEMB      70              0.0000000000
     10129        98  DOPC      C38            10.4007400807        9.8240341939       -5.7730416254  MEMB      70              0.0000000000
     10130        98  DOPC      H8X             9.3811609358       10.2437592878       -5.8760968354  MEMB      70              0.0000000000
     10131        98  DOPC      H8Y            11.0517132543       10.2806609691       -6.5526851882  MEMB      70              0.0000000000
     10132        98  DOPC      C39            10.9926760011       10.0906828772       -4.4097753148  MEMB      70              0.0000000000
     10133        98  DOPC      H9X            12.0934032124       10.1461710119       -4.4011384207  MEMB      70              0.0000000000
     10134        98  DOPC      C310           10.3467419262       10.1825791420       -3.2311052102  MEMB      70              0.0000000000
     10135        98  DOPC      H10X           10.9565813983       10.3053695340       -2.3244093604  MEMB      70              0.0000000000
     10136        98  DOPC      C311            8.8724159458       10.0489080698       -2.9431091650  MEMB      70              0.0000000000
     10137        98  DOPC      H11X            8.2343355751       10.3178953125       -3.8108356450  MEMB      70              0.0000000000
     10138        98  DOPC      H11Y            8.6064961649       10.7381449045       -2.1086873306  MEMB      70              0.0000000000
     10139        98  DOPC      C312            8.4815436545        8.6293194144       -2.5057216357  MEMB      70              0.0000000000
     10140        98  DOPC      H12X            9.0758457665        8.3771545987       -1.6102323734  MEMB      70              0.0000000000
     10141        98  DOPC      H12Y            8.7267199977        7.8885437161       -3.2960504716  MEMB      70              0.0000000000
     10142        98  DOPC      C313            6.9953967598        8.5170338460       -2.1519865509  MEMB      70              0.0000000000
     10143        98  DOPC      H13X            6.7294305647        9.3999283323       -1.5224779953  MEMB      70              0.0000000000
     10144        98  DOPC      H13Y            6.4051383768        8.6020319060       -3.0915548654  MEMB      70              0.0000000000
     10145        98  DOPC      C314            6.6040571424        7.2486574801       -1.3631421945  MEMB      70              0.0000000000
     10146        98  DOPC      H14X            6.7327611033        7.4682030990       -0.2807268129  MEMB      70              0.0000000000
     10147        98  DOPC      H14Y            5.5257100488        7.0375979908       -1.5144810422  MEMB      70              0.0000000000
     10148        98  DOPC      C315            7.3436323538        5.9380826726       -1.6939814610  MEMB      70              0.0000000000
     10149        98  DOPC      H15X            8.4436615871        6.0660807075       -1.6737638692  MEMB      70              0.0000000000
     10150        98  DOPC      H15Y            7.0737114606        5.6589662697       -2.7372771584  MEMB      70              0.0000000000
     10151        98  DOPC      C316            6.9208829255        4.7967079976       -0.7346976418  MEMB      70              0.0000000000
     10152        98  DOPC      H16X            5.9593618770        5.0818918455       -0.2570795051  MEMB      70              0.0000000000
     10153        98  DOPC      H16Y            6.7317480200        3.8925073367       -1.3545062082  MEMB      70              0.0000000000
     10154        98  DOPC      C317            7.9270041307        4.3829836521        0.3662984789  MEMB      70              0.0000000000
     10155        98  DOPC      H17X            8.4422515114        3.4647107053        0.0104964038  MEMB      70              0.0000000000
     10156        98  DOPC      H17Y            8.7238361213        5.1416240722        0.4930126607  MEMB      70              0.0000000000
     10157        98  DOPC      C318            7.3432244266        4.0827818601        1.7543258830  MEMB      70              0.0000000000
     10158        98  DOPC      H18X            6.9369928451        5.0028181564        2.2254058223  MEMB      70              0.0000000000
     10159        98  DOPC      H18Y            6.5389621555        3.3206994353        1.6828713213  MEMB      70              0.0000000000
     10160        98  DOPC      H18Z            8.1361150010        3.6809246970        2.4244385733  MEMB      70              0.0000000000
     10161        99  DOPC      N               4.1548607974      -11.9604191982      -20.5443318857  MEMB      71              0.0000000000
     10162        99  DOPC      C12             4.4408010127      -12.1121410279      -19.0567843211  MEMB      71              0.0000000000
     10163        99  DOPC      H12A            5.0305265049      -11.2721215245      -18.7138895152  MEMB      71              0.0000000000
     10164        99  DOPC      H12B            5.0282041931      -13.0174143974      -18.8954392529  MEMB      71              0.0000000000
     10165        99  DOPC      C13             3.0360923965      -10.9822459973      -20.7513687914  MEMB      71              0.0000000000
     10166        99  DOPC      H13A            3.2770671989      -10.0110163161      -20.3330330699  MEMB      71              0.0000000000
     10167        99  DOPC      H13B            2.7965602526      -10.8605508634      -21.8052683578  MEMB      71              0.0000000000
     10168        99  DOPC      H13C            2.1412133536      -11.3334952004      -20.2424460369  MEMB      71              0.0000000000
     10169        99  DOPC      C14             3.7235151152      -13.3199239788      -21.0142388455  MEMB      71              0.0000000000
     10170        99  DOPC      H14A            4.4939808242      -14.0620223816      -20.8571122409  MEMB      71              0.0000000000
     10171        99  DOPC      H14B            2.8792114413      -13.6311954052      -20.3937210666  MEMB      71              0.0000000000
     10172        99  DOPC      H14C            3.4141616338      -13.3391724166      -22.0388661846  MEMB      71              0.0000000000
     10173        99  DOPC      C15             5.3710908559      -11.5067692356      -21.2783030104  MEMB      71              0.0000000000
     10174        99  DOPC      H15A            6.1551134342      -12.2583718072      -21.2575064234  MEMB      71              0.0000000000
     10175        99  DOPC      H15B            5.7862244710      -10.6011584717      -20.8397251874  MEMB      71              0.0000000000
     10176        99  DOPC      H15C            5.1499113952      -11.2760445541      -22.3143846866  MEMB      71              0.0000000000
     10177        99  DOPC      C11             3.2047218060      -12.2110450503      -18.1257562193  MEMB      71              0.0000000000
     10178        99  DOPC      H11A            3.6263554565      -12.5209989494      -17.1383918753  MEMB      71              0.0000000000
     10179        99  DOPC      H11B            2.7508388207      -11.2041578307      -17.9904442722  MEMB      71              0.0000000000
     10180        99  DOPC      P               1.3005164351      -13.8635398398      -17.5390822955  MEMB      71              0.0000000000
     10181        99  DOPC      O13             0.5444150781      -14.9110898076      -18.2392973066  MEMB      71              0.0000000000
     10182        99  DOPC      O14             0.5703218405      -12.8212363012      -16.7949881505  MEMB      71              0.0000000000
     10183        99  DOPC      O12             2.2046649270      -13.1167265393      -18.6174185200  MEMB      71              0.0000000000
     10184        99  DOPC      O11             2.4348721057      -14.5005683106      -16.6440535047  MEMB      71              0.0000000000
     10185        99  DOPC      C1              3.0870500007      -15.7230333806      -17.0264760705  MEMB      71              0.0000000000
     10186        99  DOPC      HA              3.7876623269      -15.5712315177      -17.8767454811  MEMB      71              0.0000000000
     10187        99  DOPC      HB              2.3193460341      -16.4831758831      -17.3236562719  MEMB      71              0.0000000000
     10188        99  DOPC      C2              3.8351355288      -16.3727383796      -15.8269460296  MEMB      71              0.0000000000
     10189        99  DOPC      HS              4.0671905130      -17.4274392204      -16.0984414542  MEMB      71              0.0000000000
     10190        99  DOPC      O21             2.8997800075      -16.3218661962      -14.7524870112  MEMB      71              0.0000000000
     10191        99  DOPC      C21             2.9988468668      -17.2214304195      -13.8203971953  MEMB      71              0.0000000000
     10192        99  DOPC      O22             3.7869593169      -18.1571632312      -13.7805492234  MEMB      71              0.0000000000
     10193        99  DOPC      C22             1.8868248379      -16.8720541548      -12.8303354229  MEMB      71              0.0000000000
     10194        99  DOPC      H2R             0.9290832252      -16.8585676846      -13.3919527361  MEMB      71              0.0000000000
     10195        99  DOPC      H2S             2.0825237196      -15.8347848966      -12.4844668033  MEMB      71              0.0000000000
     10196        99  DOPC      C3              5.1909152792      -15.6770575114      -15.4455531521  MEMB      71              0.0000000000
     10197        99  DOPC      HX              5.9089181451      -15.8913392579      -16.2680822390  MEMB      71              0.0000000000
     10198        99  DOPC      HY              5.6160882417      -16.1382366185      -14.5221519929  MEMB      71              0.0000000000
     10199        99  DOPC      O31             5.0787694998      -14.2435094452      -15.3277362281  MEMB      71              0.0000000000
     10200        99  DOPC      C31             4.5547355121      -13.8244055722      -14.2003371331  MEMB      71              0.0000000000
     10201        99  DOPC      O32             4.5019451297      -14.4444129152      -13.1519309800  MEMB      71              0.0000000000
     10202        99  DOPC      C32             4.0166699912      -12.4210925731      -14.4178517010  MEMB      71              0.0000000000
     10203        99  DOPC      H2X             4.7976038705      -11.8183180552      -14.9223348627  MEMB      71              0.0000000000
     10204        99  DOPC      H2Y             3.1242207043      -12.4895338498      -15.0771399070  MEMB      71              0.0000000000
     10205        99  DOPC      C23             1.8040332006      -17.8405316459      -11.6446188269  MEMB      71              0.0000000000
     10206        99  DOPC      H3R             1.8793208273      -18.8918757890      -11.9981608857  MEMB      71              0.0000000000
     10207        99  DOPC      H3S             0.8134654872      -17.7195543722      -11.1464646499  MEMB      71              0.0000000000
     10208        99  DOPC      C24             2.8896563763      -17.5277395773      -10.6164056071  MEMB      71              0.0000000000
     10209        99  DOPC      H4R             3.8692023861      -17.4197426966      -11.1340279882  MEMB      71              0.0000000000
     10210        99  DOPC      H4S             2.9822025952      -18.3726837111       -9.8987986704  MEMB      71              0.0000000000
     10211        99  DOPC      C25             2.5522167285      -16.2518457619       -9.8381016345  MEMB      71              0.0000000000
     10212        99  DOPC      H5R             1.5628977097      -16.3903047700       -9.3456200573  MEMB      71              0.0000000000
     10213        99  DOPC      H5S             2.4665172116      -15.3769907626      -10.5190949575  MEMB      71              0.0000000000
     10214        99  DOPC      C26             3.5834981908      -15.9053002390       -8.7735094702  MEMB      71              0.0000000000
     10215        99  DOPC      H6R             3.6836844060      -16.7475094979       -8.0533964720  MEMB      71              0.0000000000
     10216        99  DOPC      H6S             3.1821082551      -15.0269496844       -8.2214707998  MEMB      71              0.0000000000
     10217        99  DOPC      C27             4.9677758172      -15.5591165112       -9.3384361511  MEMB      71              0.0000000000
     10218        99  DOPC      H7R             4.8700209973      -14.7702214500      -10.1207124001  MEMB      71              0.0000000000
     10219        99  DOPC      H7S             5.3920331126      -16.4584404919       -9.8389855910  MEMB      71              0.0000000000
     10220        99  DOPC      C28             5.9331831251      -15.1179465618       -8.2268797116  MEMB      71              0.0000000000
     10221        99  DOPC      H8R             6.9584680136      -15.0393522399       -8.6541792598  MEMB      71              0.0000000000
     10222        99  DOPC      H8S             5.9729737363      -15.9253006227       -7.4657727327  MEMB      71              0.0000000000
     10223        99  DOPC      C29             5.4787526236      -13.8089487937       -7.6280752779  MEMB      71              0.0000000000
     10224        99  DOPC      H9R             5.7870329025      -12.9164584352       -8.1933575400  MEMB      71              0.0000000000
     10225        99  DOPC      C210            4.7291990286      -13.6334097513       -6.5219181564  MEMB      71              0.0000000000
     10226        99  DOPC      H10R            4.5574837610      -12.5954559628       -6.2002529255  MEMB      71              0.0000000000
     10227        99  DOPC      C211            4.1729972608      -14.7141162721       -5.6170482634  MEMB      71              0.0000000000
     10228        99  DOPC      H11R            4.6354562588      -14.5009483549       -4.6333776012  MEMB      71              0.0000000000
     10229        99  DOPC      H11S            4.5513969711      -15.6890782666       -5.9830060653  MEMB      71              0.0000000000
     10230        99  DOPC      C212            2.6777654328      -15.0491561432       -5.2953441140  MEMB      71              0.0000000000
     10231        99  DOPC      H12R            2.2605559298      -15.6826285342       -6.1063276637  MEMB      71              0.0000000000
     10232        99  DOPC      H12S            2.0699920286      -14.1377847946       -5.2647267182  MEMB      71              0.0000000000
     10233        99  DOPC      C213            2.5348479397      -15.7943290406       -3.9374639891  MEMB      71              0.0000000000
     10234        99  DOPC      H13R            3.1013924409      -15.2261643604       -3.1691918376  MEMB      71              0.0000000000
     10235        99  DOPC      H13S            3.0158452547      -16.7929905440       -4.0439357119  MEMB      71              0.0000000000
     10236        99  DOPC      C214            1.1130366584      -15.9657934579       -3.3505432655  MEMB      71              0.0000000000
     10237        99  DOPC      H14R            0.3973962144      -16.1927914233       -4.1724579612  MEMB      71              0.0000000000
     10238        99  DOPC      H14S            0.7957573688      -15.0057964904       -2.8863857327  MEMB      71              0.0000000000
     10239        99  DOPC      C215            1.0237742564      -17.1011223192       -2.2990987166  MEMB      71              0.0000000000
     10240        99  DOPC      H15R            2.0318047357      -17.5364864419       -2.1234206850  MEMB      71              0.0000000000
     10241        99  DOPC      H15S            0.3951890886      -17.9109506224       -2.7405783703  MEMB      71              0.0000000000
     10242        99  DOPC      C216            0.4032839370      -16.7492879571       -0.9293811424  MEMB      71              0.0000000000
     10243        99  DOPC      H16R            0.1309377814      -17.7187750085       -0.4452364520  MEMB      71              0.0000000000
     10244        99  DOPC      H16S           -0.5383321880      -16.1751032309       -1.0538828227  MEMB      71              0.0000000000
     10245        99  DOPC      C217            1.3289429238      -16.0263071680        0.0611996523  MEMB      71              0.0000000000
     10246        99  DOPC      H17R            1.2214672257      -14.9275744411       -0.0750907391  MEMB      71              0.0000000000
     10247        99  DOPC      H17S            2.3924020754      -16.2783099730       -0.1529508326  MEMB      71              0.0000000000
     10248        99  DOPC      C218            1.0293045976      -16.4007126485        1.5191034960  MEMB      71              0.0000000000
     10249        99  DOPC      H18R            1.3447879439      -17.4445444290        1.7241293373  MEMB      71              0.0000000000
     10250        99  DOPC      H18S           -0.0529688529      -16.3340107363        1.7479407246  MEMB      71              0.0000000000
     10251        99  DOPC      H18T            1.5705235588      -15.7220893885        2.2124707281  MEMB      71              0.0000000000
     10252        99  DOPC      C33             3.6127343601      -11.7955327501      -13.0825959178  MEMB      71              0.0000000000
     10253        99  DOPC      H3X             4.3572680067      -12.0595949621      -12.3009418024  MEMB      71              0.0000000000
     10254        99  DOPC      H3Y             2.6375442380      -12.2304478952      -12.7629288745  MEMB      71              0.0000000000
     10255        99  DOPC      C34             3.5076726339      -10.2717634969      -13.1576164878  MEMB      71              0.0000000000
     10256        99  DOPC      H4X             2.9661416291       -9.9870152026      -14.0878453488  MEMB      71              0.0000000000
     10257        99  DOPC      H4Y             4.5303716882       -9.8319794187      -13.1972400611  MEMB      71              0.0000000000
     10258        99  DOPC      C35             2.7461581176       -9.7156998435      -11.9574702566  MEMB      71              0.0000000000
     10259        99  DOPC      H5X             1.7126181194      -10.1335078670      -11.9600545933  MEMB      71              0.0000000000
     10260        99  DOPC      H5Y             2.6683829992       -8.6095172981      -12.0383146932  MEMB      71              0.0000000000
     10261        99  DOPC      C36             3.4163028646      -10.0822249997      -10.6370361337  MEMB      71              0.0000000000
     10262        99  DOPC      H6X             3.5415046707      -11.1841841173      -10.5467553244  MEMB      71              0.0000000000
     10263        99  DOPC      H6Y             4.4353534121       -9.6341917999      -10.5974262333  MEMB      71              0.0000000000
     10264        99  DOPC      C37             2.6068132209       -9.6034456835       -9.4365527781  MEMB      71              0.0000000000
     10265        99  DOPC      H7X             2.3997152388       -8.5316523118       -9.5126807907  MEMB      71              0.0000000000
     10266        99  DOPC      H7Y             1.5851492581      -10.0496859999       -9.4646639774  MEMB      71              0.0000000000
     10267        99  DOPC      C38             3.3825784809       -9.8728201157       -8.1486899435  MEMB      71              0.0000000000
     10268        99  DOPC      H8X             3.1453625592       -9.1139240050       -7.3718106752  MEMB      71              0.0000000000
     10269        99  DOPC      H8Y             4.4824192469       -9.8256538278       -8.3101449857  MEMB      71              0.0000000000
     10270        99  DOPC      C39             2.9059348246      -11.2481178166       -7.8123845859  MEMB      71              0.0000000000
     10271        99  DOPC      H9X             3.3352612801      -12.0743240018       -8.4024891807  MEMB      71              0.0000000000
     10272        99  DOPC      C310            1.9901616579      -11.5010343334       -6.8791672083  MEMB      71              0.0000000000
     10273        99  DOPC      H10X            1.6981409445      -12.5469329408       -6.7043797444  MEMB      71              0.0000000000
     10274        99  DOPC      C311            1.3050875543      -10.4746985229       -6.0096161462  MEMB      71              0.0000000000
     10275        99  DOPC      H11X            0.2559350977      -10.7855683504       -5.8169537768  MEMB      71              0.0000000000
     10276        99  DOPC      H11Y            1.2695206940       -9.4602158258       -6.4641534164  MEMB      71              0.0000000000
     10277        99  DOPC      C312            2.0633500503      -10.4070879256       -4.6706501377  MEMB      71              0.0000000000
     10278        99  DOPC      H12X            1.4228996466       -9.9052185329       -3.9138305100  MEMB      71              0.0000000000
     10279        99  DOPC      H12Y            2.9820350044       -9.7907110937       -4.7899694800  MEMB      71              0.0000000000
     10280        99  DOPC      C313            2.4191328232      -11.8259979985       -4.1950230958  MEMB      71              0.0000000000
     10281        99  DOPC      H13X            1.5272203364      -12.4472126980       -4.4351651233  MEMB      71              0.0000000000
     10282        99  DOPC      H13Y            3.3003988896      -12.2150244643       -4.7395627117  MEMB      71              0.0000000000
     10283        99  DOPC      C314            2.6748877147      -12.0266452787       -2.7199161692  MEMB      71              0.0000000000
     10284        99  DOPC      H14X            2.1738941455      -11.1885654664       -2.2010727887  MEMB      71              0.0000000000
     10285        99  DOPC      H14Y            2.1602316201      -12.9641421224       -2.3951656926  MEMB      71              0.0000000000
     10286        99  DOPC      C315            4.1668269754      -12.1519779759       -2.3497321478  MEMB      71              0.0000000000
     10287        99  DOPC      H15X            4.5156385133      -13.1679258227       -2.6302501574  MEMB      71              0.0000000000
     10288        99  DOPC      H15Y            4.2078134597      -12.0946385003       -1.2463399245  MEMB      71              0.0000000000
     10289        99  DOPC      C316            5.1097165611      -11.1341127826       -3.0324718382  MEMB      71              0.0000000000
     10290        99  DOPC      H16X            5.5744175175      -11.6227794180       -3.9166478701  MEMB      71              0.0000000000
     10291        99  DOPC      H16Y            4.4965316362      -10.3047365453       -3.4433378267  MEMB      71              0.0000000000
     10292        99  DOPC      C317            6.2120416445      -10.4428322641       -2.1882646224  MEMB      71              0.0000000000
     10293        99  DOPC      H17X            7.1369878413      -10.4449880560       -2.8069355027  MEMB      71              0.0000000000
     10294        99  DOPC      H17Y            5.9331844115       -9.3684452677       -2.0714352098  MEMB      71              0.0000000000
     10295        99  DOPC      C318            6.5832313980      -10.9833924100       -0.8023495734  MEMB      71              0.0000000000
     10296        99  DOPC      H18X            7.6366343477      -11.3224630179       -0.7726477422  MEMB      71              0.0000000000
     10297        99  DOPC      H18Y            6.4708704239      -10.1740794194       -0.0480704003  MEMB      71              0.0000000000
     10298        99  DOPC      H18Z            5.9686764898      -11.8372929956       -0.4713597181  MEMB      71              0.0000000000
     10299       100  DOPC      N             -12.8275365262        1.7928130630      -20.4291648883  MEMB      72              0.0000000000
     10300       100  DOPC      C12           -12.6584954384        1.6858534532      -18.9141896977  MEMB      72              0.0000000000
     10301       100  DOPC      H12A          -13.5548485160        1.2863998334      -18.4644833389  MEMB      72              0.0000000000
     10302       100  DOPC      H12B          -12.5733212805        2.6880765508      -18.4916470839  MEMB      72              0.0000000000
     10303       100  DOPC      C13           -12.8746464728        0.4392707979      -21.0728445862  MEMB      72              0.0000000000
     10304       100  DOPC      H13A          -13.7491005253       -0.1270545327      -20.7847015642  MEMB      72              0.0000000000
     10305       100  DOPC      H13B          -12.8788980328        0.5153234063      -22.1597018319  MEMB      72              0.0000000000
     10306       100  DOPC      H13C          -11.9909473571       -0.1220023796      -20.7910572632  MEMB      72              0.0000000000
     10307       100  DOPC      C14           -11.6770840647        2.5301938755      -21.0428636791  MEMB      72              0.0000000000
     10308       100  DOPC      H14A          -10.7365807747        2.0214549479      -20.8321305633  MEMB      72              0.0000000000
     10309       100  DOPC      H14B          -11.7983453419        2.6105288782      -22.1212477495  MEMB      72              0.0000000000
     10310       100  DOPC      H14C          -11.5798137448        3.5359477831      -20.6509567990  MEMB      72              0.0000000000
     10311       100  DOPC      C15           -14.0851339681        2.5513268028      -20.7612392282  MEMB      72              0.0000000000
     10312       100  DOPC      H15A          -13.9610727230        3.5982793736      -20.5055477519  MEMB      72              0.0000000000
     10313       100  DOPC      H15B          -14.9410762887        2.1742945806      -20.2140232060  MEMB      72              0.0000000000
     10314       100  DOPC      H15C          -14.3002483092        2.4883080884      -21.8254776697  MEMB      72              0.0000000000
     10315       100  DOPC      C11           -11.4499052709        0.9101051800      -18.3189836219  MEMB      72              0.0000000000
     10316       100  DOPC      H11A          -11.6278122743        0.7878386777      -17.2186312818  MEMB      72              0.0000000000
     10317       100  DOPC      H11B          -11.4229091038       -0.1214233365      -18.7335997271  MEMB      72              0.0000000000
     10318       100  DOPC      P              -9.7728588027        2.8038095901      -17.6197401257  MEMB      72              0.0000000000
     10319       100  DOPC      O13            -9.0477450877        3.7886867374      -18.4447691904  MEMB      72              0.0000000000
     10320       100  DOPC      O14            -9.1943425076        2.2995300932      -16.3541415967  MEMB      72              0.0000000000
     10321       100  DOPC      O12           -10.2082914738        1.5804816537      -18.5712069683  MEMB      72              0.0000000000
     10322       100  DOPC      O11           -11.2128936308        3.3792811025      -17.2923442813  MEMB      72              0.0000000000
     10323       100  DOPC      C1            -11.7380403469        4.6096512435      -17.7765731116  MEMB      72              0.0000000000
     10324       100  DOPC      HA            -12.0765148630        4.5099980278      -18.8290058132  MEMB      72              0.0000000000
     10325       100  DOPC      HB            -10.9569855907        5.4070242425      -17.7384666328  MEMB      72              0.0000000000
     10326       100  DOPC      C2            -12.9369926843        5.0878222090      -16.8979069959  MEMB      72              0.0000000000
     10327       100  DOPC      HS            -13.0133251051        6.1955873370      -17.0099519416  MEMB      72              0.0000000000
     10328       100  DOPC      O21           -12.7134254730        4.6725856688      -15.5284395142  MEMB      72              0.0000000000
     10329       100  DOPC      C21           -11.8666746513        5.4988095972      -14.9192541993  MEMB      72              0.0000000000
     10330       100  DOPC      O22           -11.6218013116        6.6294225109      -15.3000751630  MEMB      72              0.0000000000
     10331       100  DOPC      C22           -11.2628628494        4.8823678415      -13.6640324641  MEMB      72              0.0000000000
     10332       100  DOPC      H2R           -10.2086737565        5.2291287283      -13.5973400548  MEMB      72              0.0000000000
     10333       100  DOPC      H2S           -11.2615590497        3.7754050170      -13.7434876358  MEMB      72              0.0000000000
     10334       100  DOPC      C3            -14.3371817990        4.5746141920      -17.3840546738  MEMB      72              0.0000000000
     10335       100  DOPC      HX            -14.3914328598        4.7807552958      -18.4744094465  MEMB      72              0.0000000000
     10336       100  DOPC      HY            -15.1224723994        5.2213962020      -16.9222902111  MEMB      72              0.0000000000
     10337       100  DOPC      O31           -14.5716864573        3.1628940070      -17.1570754357  MEMB      72              0.0000000000
     10338       100  DOPC      C31           -15.0177535428        2.9197028051      -15.9119952342  MEMB      72              0.0000000000
     10339       100  DOPC      O32           -15.5102100779        3.7443970009      -15.1689502744  MEMB      72              0.0000000000
     10340       100  DOPC      C32           -14.8522191798        1.4368078161      -15.6005403798  MEMB      72              0.0000000000
     10341       100  DOPC      H2X           -15.8213386039        1.0622467923      -15.2132260212  MEMB      72              0.0000000000
     10342       100  DOPC      H2Y           -14.5865726472        0.8757313116      -16.5164689965  MEMB      72              0.0000000000
     10343       100  DOPC      C23           -12.0581361704        5.3781156950      -12.4420429848  MEMB      72              0.0000000000
     10344       100  DOPC      H3R           -12.3407210301        6.4461230436      -12.5795899165  MEMB      72              0.0000000000
     10345       100  DOPC      H3S           -11.4321050880        5.3264897344      -11.5242987034  MEMB      72              0.0000000000
     10346       100  DOPC      C24           -13.3046707708        4.5138929588      -12.2459653595  MEMB      72              0.0000000000
     10347       100  DOPC      H4R           -12.9930057610        3.5957430040      -11.7070215744  MEMB      72              0.0000000000
     10348       100  DOPC      H4S           -13.6983077338        4.1884462274      -13.2372911576  MEMB      72              0.0000000000
     10349       100  DOPC      C25           -14.4474174409        5.2235218879      -11.5172440337  MEMB      72              0.0000000000
     10350       100  DOPC      H5R           -14.8510035154        6.0135708311      -12.1935230758  MEMB      72              0.0000000000
     10351       100  DOPC      H5S           -14.0655909807        5.7205250802      -10.5992386175  MEMB      72              0.0000000000
     10352       100  DOPC      C26           -15.5780008573        4.2532079424      -11.1431490842  MEMB      72              0.0000000000
     10353       100  DOPC      H6R           -15.8492927797        3.6561773596      -12.0434915291  MEMB      72              0.0000000000
     10354       100  DOPC      H6S           -16.4768785874        4.8366709314      -10.8418292654  MEMB      72              0.0000000000
     10355       100  DOPC      C27           -15.1904249385        3.3112306651       -9.9897399015  MEMB      72              0.0000000000
     10356       100  DOPC      H7R           -14.9702368862        3.9327561105       -9.0935940333  MEMB      72              0.0000000000
     10357       100  DOPC      H7S           -14.2566717847        2.7678176133      -10.2549206664  MEMB      72              0.0000000000
     10358       100  DOPC      C28           -16.2714936845        2.2662588437       -9.6542366370  MEMB      72              0.0000000000
     10359       100  DOPC      H8R           -16.4630117092        1.6696705262      -10.5730096110  MEMB      72              0.0000000000
     10360       100  DOPC      H8S           -17.2218200807        2.7883296047       -9.4036502137  MEMB      72              0.0000000000
     10361       100  DOPC      C29           -15.8398295527        1.3372708935       -8.5476057409  MEMB      72              0.0000000000
     10362       100  DOPC      H9R           -15.4978938905        0.3460670731       -8.8831691636  MEMB      72              0.0000000000
     10363       100  DOPC      C210          -15.8033379916        1.6332383023       -7.2363333248  MEMB      72              0.0000000000
     10364       100  DOPC      H10R          -15.4386022810        0.8722502436       -6.5281410728  MEMB      72              0.0000000000
     10365       100  DOPC      C211          -16.1879382103        2.9550711972       -6.6178766324  MEMB      72              0.0000000000
     10366       100  DOPC      H11R          -16.9103144660        2.7864632566       -5.7879909094  MEMB      72              0.0000000000
     10367       100  DOPC      H11S          -16.7039679422        3.6186417249       -7.3490918769  MEMB      72              0.0000000000
     10368       100  DOPC      C212          -14.9609717278        3.7107156242       -6.0637952972  MEMB      72              0.0000000000
     10369       100  DOPC      H12R          -14.1709980135        3.7896013854       -6.8428934080  MEMB      72              0.0000000000
     10370       100  DOPC      H12S          -14.5476765750        3.1213060543       -5.2148318178  MEMB      72              0.0000000000
     10371       100  DOPC      C213          -15.3216030979        5.1274515198       -5.5854633840  MEMB      72              0.0000000000
     10372       100  DOPC      H13R          -16.1015201088        5.0237193044       -4.8022577898  MEMB      72              0.0000000000
     10373       100  DOPC      H13S          -15.7972098801        5.6799015202       -6.4280137616  MEMB      72              0.0000000000
     10374       100  DOPC      C214          -14.1560999094        5.9831508664       -5.0364307189  MEMB      72              0.0000000000
     10375       100  DOPC      H14R          -14.6007509732        6.7733517103       -4.3894543466  MEMB      72              0.0000000000
     10376       100  DOPC      H14S          -13.6608800579        6.5132263087       -5.8811524264  MEMB      72              0.0000000000
     10377       100  DOPC      C215          -13.0735391013        5.2259890273       -4.2365257883  MEMB      72              0.0000000000
     10378       100  DOPC      H15R          -12.2773728924        4.9114833514       -4.9485994926  MEMB      72              0.0000000000
     10379       100  DOPC      H15S          -13.4991511881        4.3049290880       -3.7860979824  MEMB      72              0.0000000000
     10380       100  DOPC      C216          -12.4430448829        6.0530083444       -3.0962871728  MEMB      72              0.0000000000
     10381       100  DOPC      H16R          -13.2137593762        6.2552169764       -2.3204723898  MEMB      72              0.0000000000
     10382       100  DOPC      H16S          -12.1114070354        7.0316162440       -3.5074250506  MEMB      72              0.0000000000
     10383       100  DOPC      C217          -11.2487771500        5.3567777742       -2.4141932154  MEMB      72              0.0000000000
     10384       100  DOPC      H17R          -10.5270905377        5.0498815779       -3.2047243989  MEMB      72              0.0000000000
     10385       100  DOPC      H17S          -11.6047813499        4.4309187790       -1.9074977243  MEMB      72              0.0000000000
     10386       100  DOPC      C218          -10.5035696658        6.2273926554       -1.3935897168  MEMB      72              0.0000000000
     10387       100  DOPC      H18R           -9.6089400305        5.7037815974       -0.9894494377  MEMB      72              0.0000000000
     10388       100  DOPC      H18S          -11.1650810227        6.5061753770       -0.5436854175  MEMB      72              0.0000000000
     10389       100  DOPC      H18T          -10.1385291032        7.1509046252       -1.8853257053  MEMB      72              0.0000000000
     10390       100  DOPC      C33           -13.7662142675        1.2400165710      -14.5287346884  MEMB      72              0.0000000000
     10391       100  DOPC      H3X           -14.0306124034        1.8689558448      -13.6466544884  MEMB      72              0.0000000000
     10392       100  DOPC      H3Y           -12.7774498458        1.5888901714      -14.9112832977  MEMB      72              0.0000000000
     10393       100  DOPC      C34           -13.6432287824       -0.2225901683      -14.0805688755  MEMB      72              0.0000000000
     10394       100  DOPC      H4X           -13.4105717043       -0.8584632712      -14.9659446083  MEMB      72              0.0000000000
     10395       100  DOPC      H4Y           -14.6175893959       -0.5509967728      -13.6605751342  MEMB      72              0.0000000000
     10396       100  DOPC      C35           -12.5423526230       -0.4345180565      -13.0310218964  MEMB      72              0.0000000000
     10397       100  DOPC      H5X           -11.5711466139       -0.0942562599      -13.4616346335  MEMB      72              0.0000000000
     10398       100  DOPC      H5Y           -12.4567245819       -1.5249042869      -12.8292656592  MEMB      72              0.0000000000
     10399       100  DOPC      C36           -12.7890629428        0.3367002876      -11.7224751105  MEMB      72              0.0000000000
     10400       100  DOPC      H6X           -12.8903498806        1.4188902336      -11.9597914193  MEMB      72              0.0000000000
     10401       100  DOPC      H6Y           -13.7462521396        0.0000534695      -11.2684398241  MEMB      72              0.0000000000
     10402       100  DOPC      C37           -11.6323605102        0.2037632362      -10.7209241481  MEMB      72              0.0000000000
     10403       100  DOPC      H7X           -10.6889594886        0.4578402055      -11.2574907475  MEMB      72              0.0000000000
     10404       100  DOPC      H7Y           -11.7514291428        0.9563491563       -9.9074520647  MEMB      72              0.0000000000
     10405       100  DOPC      C38           -11.5131831152       -1.2083776426      -10.1258690181  MEMB      72              0.0000000000
     10406       100  DOPC      H8X           -10.4567903631       -1.3443424323       -9.8049794674  MEMB      72              0.0000000000
     10407       100  DOPC      H8Y           -11.6918541994       -1.9629710896      -10.9207228749  MEMB      72              0.0000000000
     10408       100  DOPC      C39           -12.4950790676       -1.4137484360       -8.9998566289  MEMB      72              0.0000000000
     10409       100  DOPC      H9X           -13.5127669975       -1.0492152423       -9.2013438698  MEMB      72              0.0000000000
     10410       100  DOPC      C310          -12.2174254876       -1.9112359721       -7.7839093995  MEMB      72              0.0000000000
     10411       100  DOPC      H10X          -13.0210413419       -1.9736931684       -7.0351483768  MEMB      72              0.0000000000
     10412       100  DOPC      C311          -10.8691988671       -2.3677969296       -7.2887405266  MEMB      72              0.0000000000
     10413       100  DOPC      H11X          -10.0576805772       -2.2502112129       -8.0384598543  MEMB      72              0.0000000000
     10414       100  DOPC      H11Y          -10.9027423810       -3.4503529299       -7.0390634462  MEMB      72              0.0000000000
     10415       100  DOPC      C312          -10.4778696865       -1.6097976331       -6.0117261833  MEMB      72              0.0000000000
     10416       100  DOPC      H12X           -9.4643777848       -1.9492229873       -5.6980220908  MEMB      72              0.0000000000
     10417       100  DOPC      H12Y          -11.1939184310       -1.9109833922       -5.2167959540  MEMB      72              0.0000000000
     10418       100  DOPC      C313          -10.4639758474       -0.0761649776       -6.1467716462  MEMB      72              0.0000000000
     10419       100  DOPC      H13X           -9.7240313307        0.2000112130       -6.9342223487  MEMB      72              0.0000000000
     10420       100  DOPC      H13Y          -11.4554722214        0.3003861037       -6.4813581842  MEMB      72              0.0000000000
     10421       100  DOPC      C314          -10.0933296046        0.6244479878       -4.8290783395  MEMB      72              0.0000000000
     10422       100  DOPC      H14X           -9.0707816149        0.2846961484       -4.5468340140  MEMB      72              0.0000000000
     10423       100  DOPC      H14Y          -10.0461174931        1.7248929461       -4.9900071840  MEMB      72              0.0000000000
     10424       100  DOPC      C315          -11.0444774720        0.3381226965       -3.6496068104  MEMB      72              0.0000000000
     10425       100  DOPC      H15X          -10.5489749489        0.7262188405       -2.7323157411  MEMB      72              0.0000000000
     10426       100  DOPC      H15Y          -11.1753571633       -0.7553130790       -3.5067096722  MEMB      72              0.0000000000
     10427       100  DOPC      C316          -12.4271578926        0.9991260907       -3.7834958893  MEMB      72              0.0000000000
     10428       100  DOPC      H16X          -12.2841006158        2.0959903908       -3.9101033462  MEMB      72              0.0000000000
     10429       100  DOPC      H16Y          -12.9312995879        0.6218438580       -4.7007522002  MEMB      72              0.0000000000
     10430       100  DOPC      C317          -13.3519518095        0.7598689609       -2.5749952927  MEMB      72              0.0000000000
     10431       100  DOPC      H17X          -14.3095658997        1.2990995468       -2.7610576468  MEMB      72              0.0000000000
     10432       100  DOPC      H17Y          -13.5871433514       -0.3264959938       -2.5099606818  MEMB      72              0.0000000000
     10433       100  DOPC      C318          -12.7799357324        1.2317273234       -1.2332810961  MEMB      72              0.0000000000
     10434       100  DOPC      H18X          -13.5255072907        1.1144847484       -0.4186894620  MEMB      72              0.0000000000
     10435       100  DOPC      H18Y          -11.8773450155        0.6455539085       -0.9596051438  MEMB      72              0.0000000000
     10436       100  DOPC      H18Z          -12.4916583118        2.3034965357       -1.2926013767  MEMB      72              0.0000000000
     10437       101  DOPC      N             -12.0458893036       -8.4443536467      -19.9264170502  MEMB      73              0.0000000000
     10438       101  DOPC      C12           -13.2312565607       -8.6082239189      -18.9845507732  MEMB      73              0.0000000000
     10439       101  DOPC      H12A          -13.2687278506       -9.6212039285      -18.6081601630  MEMB      73              0.0000000000
     10440       101  DOPC      H12B          -14.1557567066       -8.4772111411      -19.5662314517  MEMB      73              0.0000000000
     10441       101  DOPC      C13           -11.6608262266       -9.7602580582      -20.5188839217  MEMB      73              0.0000000000
     10442       101  DOPC      H13A          -12.4183361062      -10.0961179223      -21.2282022572  MEMB      73              0.0000000000
     10443       101  DOPC      H13B          -10.7229165098       -9.6846659388      -21.0550552269  MEMB      73              0.0000000000
     10444       101  DOPC      H13C          -11.5863998845      -10.5431504921      -19.7763254532  MEMB      73              0.0000000000
     10445       101  DOPC      C14           -10.8857432337       -7.8322183166      -19.2151438752  MEMB      73              0.0000000000
     10446       101  DOPC      H14A          -11.1819948115       -6.8426427971      -18.8591567402  MEMB      73              0.0000000000
     10447       101  DOPC      H14B          -10.6388382278       -8.4174355074      -18.3418839288  MEMB      73              0.0000000000
     10448       101  DOPC      H14C          -10.0136460451       -7.7440509703      -19.8531851113  MEMB      73              0.0000000000
     10449       101  DOPC      C15           -12.4830464365       -7.5627085046      -21.0602938303  MEMB      73              0.0000000000
     10450       101  DOPC      H15A          -13.3627956079       -8.0140643942      -21.5197678622  MEMB      73              0.0000000000
     10451       101  DOPC      H15B          -11.7479930477       -7.4807353667      -21.8508763847  MEMB      73              0.0000000000
     10452       101  DOPC      H15C          -12.8148752648       -6.5816803342      -20.7186306513  MEMB      73              0.0000000000
     10453       101  DOPC      C11           -13.3360164412       -7.5794891093      -17.8328778936  MEMB      73              0.0000000000
     10454       101  DOPC      H11A          -14.1963432079       -7.8457781754      -17.1649308232  MEMB      73              0.0000000000
     10455       101  DOPC      H11B          -12.4414715440       -7.6177019586      -17.1774585843  MEMB      73              0.0000000000
     10456       101  DOPC      P             -14.9062901968       -5.8587716435      -18.9159721642  MEMB      73              0.0000000000
     10457       101  DOPC      O13           -15.6073648203       -7.1014912199      -19.3088173651  MEMB      73              0.0000000000
     10458       101  DOPC      O14           -14.8329049354       -4.7672517381      -19.9096448247  MEMB      73              0.0000000000
     10459       101  DOPC      O12           -13.4549759014       -6.2633152801      -18.3904760828  MEMB      73              0.0000000000
     10460       101  DOPC      O11           -15.6059584299       -5.3506756678      -17.5771722068  MEMB      73              0.0000000000
     10461       101  DOPC      C1            -15.1639654468       -4.1566827234      -16.9314033726  MEMB      73              0.0000000000
     10462       101  DOPC      HA            -15.8144510437       -3.3095878948      -17.2329933587  MEMB      73              0.0000000000
     10463       101  DOPC      HB            -14.1177607901       -3.8971286608      -17.2236559982  MEMB      73              0.0000000000
     10464       101  DOPC      C2            -15.1645060175       -4.2723904612      -15.3749001409  MEMB      73              0.0000000000
     10465       101  DOPC      HS            -14.7351696065       -3.3206174746      -14.9779051991  MEMB      73              0.0000000000
     10466       101  DOPC      O21           -14.4044418474       -5.4128396336      -14.9593234884  MEMB      73              0.0000000000
     10467       101  DOPC      C21           -13.1170818268       -5.1774471597      -14.8704086717  MEMB      73              0.0000000000
     10468       101  DOPC      O22           -12.5460929973       -4.1337443283      -15.1394992059  MEMB      73              0.0000000000
     10469       101  DOPC      C22           -12.4371581830       -6.3833207559      -14.2533720205  MEMB      73              0.0000000000
     10470       101  DOPC      H2R           -12.1289281287       -7.0598899606      -15.0731302413  MEMB      73              0.0000000000
     10471       101  DOPC      H2S           -13.1413668080       -6.9271359374      -13.5894888344  MEMB      73              0.0000000000
     10472       101  DOPC      C3            -16.5678941030       -4.3953779579      -14.7218441926  MEMB      73              0.0000000000
     10473       101  DOPC      HX            -17.0536437599       -5.2937662361      -15.1634479701  MEMB      73              0.0000000000
     10474       101  DOPC      HY            -17.1816339035       -3.5134035500      -15.0051594603  MEMB      73              0.0000000000
     10475       101  DOPC      O31           -16.4943971370       -4.5679721217      -13.2804436254  MEMB      73              0.0000000000
     10476       101  DOPC      C31           -16.2794769182       -3.4514437579      -12.5902084251  MEMB      73              0.0000000000
     10477       101  DOPC      O32           -16.2004238513       -2.3363694342      -13.0723935345  MEMB      73              0.0000000000
     10478       101  DOPC      C32           -16.2412391766       -3.7390533606      -11.0879826230  MEMB      73              0.0000000000
     10479       101  DOPC      H2X           -16.0388459747       -4.8174613077      -10.9356920937  MEMB      73              0.0000000000
     10480       101  DOPC      H2Y           -15.4063534414       -3.1500099098      -10.6536813537  MEMB      73              0.0000000000
     10481       101  DOPC      C23           -11.1996882954       -5.9329632622      -13.4580068615  MEMB      73              0.0000000000
     10482       101  DOPC      H3R           -10.6894742788       -5.0574153454      -13.9196043056  MEMB      73              0.0000000000
     10483       101  DOPC      H3S           -10.4833905952       -6.7728198281      -13.5050293016  MEMB      73              0.0000000000
     10484       101  DOPC      C24           -11.4909868917       -5.6299724334      -11.9862004635  MEMB      73              0.0000000000
     10485       101  DOPC      H4R           -12.3241281901       -4.9015095537      -11.8813953849  MEMB      73              0.0000000000
     10486       101  DOPC      H4S           -10.5811016459       -5.1425625303      -11.5632924351  MEMB      73              0.0000000000
     10487       101  DOPC      C25           -11.7830601658       -6.8808559003      -11.1456199811  MEMB      73              0.0000000000
     10488       101  DOPC      H5R           -11.3044660380       -7.7723233047      -11.6157165894  MEMB      73              0.0000000000
     10489       101  DOPC      H5S           -12.8757851390       -7.0803577599      -11.1016829716  MEMB      73              0.0000000000
     10490       101  DOPC      C26           -11.2095438339       -6.7365039720       -9.7371949924  MEMB      73              0.0000000000
     10491       101  DOPC      H6R           -10.1125443270       -6.6408107055       -9.8201920083  MEMB      73              0.0000000000
     10492       101  DOPC      H6S           -11.3645141206       -7.6736974936       -9.1633765713  MEMB      73              0.0000000000
     10493       101  DOPC      C27           -11.7086006649       -5.4914324377       -8.9825990084  MEMB      73              0.0000000000
     10494       101  DOPC      H7R           -11.6393103706       -4.5748342177       -9.6042627318  MEMB      73              0.0000000000
     10495       101  DOPC      H7S           -10.9951723888       -5.3200639980       -8.1486518832  MEMB      73              0.0000000000
     10496       101  DOPC      C28           -13.1269098977       -5.6303367359       -8.4149299082  MEMB      73              0.0000000000
     10497       101  DOPC      H8R           -13.8835972538       -5.6831166476       -9.2258072001  MEMB      73              0.0000000000
     10498       101  DOPC      H8S           -13.3637948197       -4.7176176433       -7.8351706749  MEMB      73              0.0000000000
     10499       101  DOPC      C29           -13.1488479358       -6.8780033747       -7.5761680957  MEMB      73              0.0000000000
     10500       101  DOPC      H9R           -13.6828510292       -7.7268908091       -8.0344548003  MEMB      73              0.0000000000
     10501       101  DOPC      C210          -12.5967969774       -7.0339125109       -6.3612586949  MEMB      73              0.0000000000
     10502       101  DOPC      H10R          -12.6219011477       -8.0372047411       -5.9030017315  MEMB      73              0.0000000000
     10503       101  DOPC      C211          -11.8472018975       -5.9935634966       -5.5730908492  MEMB      73              0.0000000000
     10504       101  DOPC      H11R          -10.9621266060       -5.6380841961       -6.1402759026  MEMB      73              0.0000000000
     10505       101  DOPC      H11S          -11.4494820122       -6.4887879535       -4.6662398981  MEMB      73              0.0000000000
     10506       101  DOPC      C212          -12.6693716330       -4.7562734588       -5.1332851699  MEMB      73              0.0000000000
     10507       101  DOPC      H12R          -12.9785687833       -4.1560991714       -6.0086895104  MEMB      73              0.0000000000
     10508       101  DOPC      H12S          -12.0165953449       -4.0898644744       -4.5305602728  MEMB      73              0.0000000000
     10509       101  DOPC      C213          -13.9351911894       -5.1053691504       -4.3435100699  MEMB      73              0.0000000000
     10510       101  DOPC      H13R          -13.6541065001       -5.6806882220       -3.4345879832  MEMB      73              0.0000000000
     10511       101  DOPC      H13S          -14.5641427276       -5.7643352671       -4.9852249431  MEMB      73              0.0000000000
     10512       101  DOPC      C214          -14.7914786421       -3.8881898890       -3.9577613218  MEMB      73              0.0000000000
     10513       101  DOPC      H14R          -15.2440460785       -3.4644616448       -4.8839994185  MEMB      73              0.0000000000
     10514       101  DOPC      H14S          -14.1547285317       -3.0994714603       -3.4991862530  MEMB      73              0.0000000000
     10515       101  DOPC      C215          -15.9223619359       -4.2456696102       -2.9821318111  MEMB      73              0.0000000000
     10516       101  DOPC      H15R          -16.5942797001       -3.3736266738       -2.8607318546  MEMB      73              0.0000000000
     10517       101  DOPC      H15S          -15.4922697293       -4.4778405455       -1.9820301678  MEMB      73              0.0000000000
     10518       101  DOPC      C216          -16.7544472464       -5.4456621583       -3.4384299227  MEMB      73              0.0000000000
     10519       101  DOPC      H16R          -16.0831309871       -6.3214306733       -3.5797554818  MEMB      73              0.0000000000
     10520       101  DOPC      H16S          -17.2282341350       -5.2409567848       -4.4222522062  MEMB      73              0.0000000000
     10521       101  DOPC      C217          -17.8181836977       -5.8668886905       -2.4242611634  MEMB      73              0.0000000000
     10522       101  DOPC      H17R          -17.8549791472       -5.2226641416       -1.5269718542  MEMB      73              0.0000000000
     10523       101  DOPC      H17S          -17.4416909084       -6.8104315336       -2.0177672671  MEMB      73              0.0000000000
     10524       101  DOPC      C218          -19.2057563644       -6.0839818356       -3.0265828448  MEMB      73              0.0000000000
     10525       101  DOPC      H18R          -19.8655337720       -6.5947365022       -2.2984834706  MEMB      73              0.0000000000
     10526       101  DOPC      H18S          -19.1330530223       -6.7177316890       -3.9345558796  MEMB      73              0.0000000000
     10527       101  DOPC      H18T          -19.6877217652       -5.1310584670       -3.3149411710  MEMB      73              0.0000000000
     10528       101  DOPC      C33           -17.5751861933       -3.3215364490      -10.4316123190  MEMB      73              0.0000000000
     10529       101  DOPC      H3X           -18.4058741500       -3.7945890601      -10.9975663069  MEMB      73              0.0000000000
     10530       101  DOPC      H3Y           -17.6943300948       -2.2159684880      -10.5119374001  MEMB      73              0.0000000000
     10531       101  DOPC      C34           -17.7610083753       -3.7307078156       -8.9617972915  MEMB      73              0.0000000000
     10532       101  DOPC      H4X           -18.6882932467       -3.2313318746       -8.5946764356  MEMB      73              0.0000000000
     10533       101  DOPC      H4Y           -16.9137314752       -3.3632304307       -8.3442334249  MEMB      73              0.0000000000
     10534       101  DOPC      C35           -17.9574720449       -5.2430442566       -8.7723512855  MEMB      73              0.0000000000
     10535       101  DOPC      H5X           -16.9927473395       -5.7544969031       -8.9823028916  MEMB      73              0.0000000000
     10536       101  DOPC      H5Y           -18.7027236165       -5.6098169818       -9.5139516115  MEMB      73              0.0000000000
     10537       101  DOPC      C36           -18.4641565182       -5.6047790783       -7.3648613210  MEMB      73              0.0000000000
     10538       101  DOPC      H6X           -17.7055824051       -5.2731314277       -6.6210049390  MEMB      73              0.0000000000
     10539       101  DOPC      H6Y           -19.3951659194       -5.0323303506       -7.1514461371  MEMB      73              0.0000000000
     10540       101  DOPC      C37           -18.7614490153       -7.1084153244       -7.1655045330  MEMB      73              0.0000000000
     10541       101  DOPC      H7X           -18.9592645323       -7.2844127851       -6.0824947250  MEMB      73              0.0000000000
     10542       101  DOPC      H7Y           -19.6954175595       -7.3647069860       -7.7123884087  MEMB      73              0.0000000000
     10543       101  DOPC      C38           -17.6394815166       -8.0603986865       -7.6270475931  MEMB      73              0.0000000000
     10544       101  DOPC      H8X           -17.5162408566       -7.9795268879       -8.7310279150  MEMB      73              0.0000000000
     10545       101  DOPC      H8Y           -17.9465399078       -9.1071529187       -7.4040425761  MEMB      73              0.0000000000
     10546       101  DOPC      C39           -16.3771569225       -7.6685099601       -6.9058161095  MEMB      73              0.0000000000
     10547       101  DOPC      H9X           -16.0296959185       -6.6476775122       -7.1333048058  MEMB      73              0.0000000000
     10548       101  DOPC      C310          -15.6138341083       -8.4126164771       -6.0922381076  MEMB      73              0.0000000000
     10549       101  DOPC      H10X          -14.8066439773       -7.9045787524       -5.5533501426  MEMB      73              0.0000000000
     10550       101  DOPC      C311          -15.7968442535       -9.8396696534       -5.6795365440  MEMB      73              0.0000000000
     10551       101  DOPC      H11X          -14.8066474095      -10.3445795936       -5.6338457452  MEMB      73              0.0000000000
     10552       101  DOPC      H11Y          -16.3923293961      -10.3711818057       -6.4545038955  MEMB      73              0.0000000000
     10553       101  DOPC      C312          -16.5182578568       -9.9742937583       -4.3242018248  MEMB      73              0.0000000000
     10554       101  DOPC      H12X          -16.7106985715      -11.0482110536       -4.1092435135  MEMB      73              0.0000000000
     10555       101  DOPC      H12Y          -17.5054721350       -9.4847365823       -4.4493405623  MEMB      73              0.0000000000
     10556       101  DOPC      C313          -15.7927282269       -9.3610018520       -3.1091728915  MEMB      73              0.0000000000
     10557       101  DOPC      H13X          -14.9294549505       -9.9984778649       -2.8214294419  MEMB      73              0.0000000000
     10558       101  DOPC      H13Y          -15.3971587580       -8.3586178246       -3.3786252365  MEMB      73              0.0000000000
     10559       101  DOPC      C314          -16.7096863503       -9.2028269178       -1.8872303116  MEMB      73              0.0000000000
     10560       101  DOPC      H14X          -17.6214594526       -8.6591559963       -2.1944753421  MEMB      73              0.0000000000
     10561       101  DOPC      H14Y          -17.1299375058      -10.1781062336       -1.5976019835  MEMB      73              0.0000000000
     10562       101  DOPC      C315          -16.0230623981       -8.5733492408       -0.6478160677  MEMB      73              0.0000000000
     10563       101  DOPC      H15X          -15.7921156090       -7.5002543062       -0.8141237437  MEMB      73              0.0000000000
     10564       101  DOPC      H15Y          -15.0492896591       -9.0884090192       -0.4913117463  MEMB      73              0.0000000000
     10565       101  DOPC      C316          -16.8998873621       -8.7731946204        0.6030914160  MEMB      73              0.0000000000
     10566       101  DOPC      H16X          -17.9586154238       -8.7229840136        0.2576355945  MEMB      73              0.0000000000
     10567       101  DOPC      H16Y          -16.6970189242       -9.8015692324        0.9764757660  MEMB      73              0.0000000000
     10568       101  DOPC      C317          -16.7710991239       -7.8200019819        1.8070440223  MEMB      73              0.0000000000
     10569       101  DOPC      H17X          -17.6424959755       -8.0426580976        2.4710855183  MEMB      73              0.0000000000
     10570       101  DOPC      H17Y          -15.8610810243       -8.0747607402        2.3941697055  MEMB      73              0.0000000000
     10571       101  DOPC      C318          -16.7846025542       -6.3237577490        1.4819973179  MEMB      73              0.0000000000
     10572       101  DOPC      H18X          -17.6115535524       -6.0644568286        0.7938657354  MEMB      73              0.0000000000
     10573       101  DOPC      H18Y          -16.8878385147       -5.7212239188        2.4128701969  MEMB      73              0.0000000000
     10574       101  DOPC      H18Z          -15.8585337014       -6.0183457210        0.9606377045  MEMB      73              0.0000000000
     10575       102  DOPC      N               0.8776364205       15.3455741177      -21.2963477388  MEMB      74              0.0000000000
     10576       102  DOPC      C12            -0.4470432568       15.8043434358      -20.7214208261  MEMB      74              0.0000000000
     10577       102  DOPC      H12A           -1.2641681714       15.4256703517      -21.3259524152  MEMB      74              0.0000000000
     10578       102  DOPC      H12B           -0.4760244253       16.8896052131      -20.7657316989  MEMB      74              0.0000000000
     10579       102  DOPC      C13             0.8629374329       15.4905959910      -22.7713901398  MEMB      74              0.0000000000
     10580       102  DOPC      H13A            1.7915414385       15.0944164319      -23.1815208558  MEMB      74              0.0000000000
     10581       102  DOPC      H13B            0.0302640230       14.9560073188      -23.2076485035  MEMB      74              0.0000000000
     10582       102  DOPC      H13C            0.7548281076       16.5419707530      -23.0420466299  MEMB      74              0.0000000000
     10583       102  DOPC      C14             1.1773765951       13.9230652111      -20.9050372202  MEMB      74              0.0000000000
     10584       102  DOPC      H14A            2.1233954616       13.5837458159      -21.3216176858  MEMB      74              0.0000000000
     10585       102  DOPC      H14B            1.2724595573       13.8849395489      -19.8163120582  MEMB      74              0.0000000000
     10586       102  DOPC      H14C            0.3919586031       13.2445388446      -21.1961584262  MEMB      74              0.0000000000
     10587       102  DOPC      C15             2.0277529357       16.1301744884      -20.7049430531  MEMB      74              0.0000000000
     10588       102  DOPC      H15A            2.9865638863       15.7501687211      -21.0333082066  MEMB      74              0.0000000000
     10589       102  DOPC      H15B            2.0006021078       16.0120242514      -19.6126061714  MEMB      74              0.0000000000
     10590       102  DOPC      H15C            1.9863602473       17.1927177993      -20.8951062342  MEMB      74              0.0000000000
     10591       102  DOPC      C11            -0.7148116691       15.4316517890      -19.2592737834  MEMB      74              0.0000000000
     10592       102  DOPC      H11A           -1.6941352771       15.8574871377      -18.9352743648  MEMB      74              0.0000000000
     10593       102  DOPC      H11B           -0.7879349791       14.3238845782      -19.1539467479  MEMB      74              0.0000000000
     10594       102  DOPC      P               0.5297177989       15.6044673459      -16.9695329740  MEMB      74              0.0000000000
     10595       102  DOPC      O13             0.4095344471       16.8438747975      -16.1796268439  MEMB      74              0.0000000000
     10596       102  DOPC      O14             1.7804713003       14.8309632791      -16.8753606476  MEMB      74              0.0000000000
     10597       102  DOPC      O12             0.3385985618       15.9728072693      -18.4793807254  MEMB      74              0.0000000000
     10598       102  DOPC      O11            -0.7200409866       14.6612419871      -16.7493359791  MEMB      74              0.0000000000
     10599       102  DOPC      C1             -0.6565646548       13.4748188343      -15.9801533615  MEMB      74              0.0000000000
     10600       102  DOPC      HA              0.3870432848       13.1057184792      -15.8454342966  MEMB      74              0.0000000000
     10601       102  DOPC      HB             -1.2158756206       12.6786806722      -16.5166795938  MEMB      74              0.0000000000
     10602       102  DOPC      C2             -1.3275095226       13.6572162628      -14.5958127918  MEMB      74              0.0000000000
     10603       102  DOPC      HS             -2.4240011357       13.7446520868      -14.7937551479  MEMB      74              0.0000000000
     10604       102  DOPC      O21            -0.7799187917       14.8032067758      -13.9159477792  MEMB      74              0.0000000000
     10605       102  DOPC      C21            -1.6447571113       15.3687564787      -13.1052468253  MEMB      74              0.0000000000
     10606       102  DOPC      O22            -2.8385746598       15.1353132571      -13.0564806547  MEMB      74              0.0000000000
     10607       102  DOPC      C22            -0.9358951205       16.2821491545      -12.1087744888  MEMB      74              0.0000000000
     10608       102  DOPC      H2R            -1.0793474810       17.3361768975      -12.4190528552  MEMB      74              0.0000000000
     10609       102  DOPC      H2S             0.1496689311       16.0458539362      -12.1542877208  MEMB      74              0.0000000000
     10610       102  DOPC      C3             -1.0113692311       12.3977818187      -13.7589241486  MEMB      74              0.0000000000
     10611       102  DOPC      HX              0.1077898379       12.4327498353      -13.7086158830  MEMB      74              0.0000000000
     10612       102  DOPC      HY             -1.3286331758       11.4961721925      -14.3303389354  MEMB      74              0.0000000000
     10613       102  DOPC      O31            -1.5758425130       12.3959670677      -12.4227273696  MEMB      74              0.0000000000
     10614       102  DOPC      C31            -0.9309395989       11.4774371400      -11.6911180918  MEMB      74              0.0000000000
     10615       102  DOPC      O32            -0.1275079790       10.6919894923      -12.1575537670  MEMB      74              0.0000000000
     10616       102  DOPC      C32            -1.2956673142       11.5466781045      -10.2062997138  MEMB      74              0.0000000000
     10617       102  DOPC      H2X            -1.6062745261       12.5821575427       -9.9688383442  MEMB      74              0.0000000000
     10618       102  DOPC      H2Y            -2.1704598588       10.8827984173      -10.0444054223  MEMB      74              0.0000000000
     10619       102  DOPC      C23            -1.4591493254       16.0425905845      -10.6688435552  MEMB      74              0.0000000000
     10620       102  DOPC      H3R            -1.7230819124       14.9663679474      -10.5364265222  MEMB      74              0.0000000000
     10621       102  DOPC      H3S            -2.3794703785       16.6391633184      -10.4836439805  MEMB      74              0.0000000000
     10622       102  DOPC      C24            -0.3682419355       16.3600244069       -9.6458798107  MEMB      74              0.0000000000
     10623       102  DOPC      H4R            -0.0404920461       17.4085358232       -9.7377000807  MEMB      74              0.0000000000
     10624       102  DOPC      H4S             0.5366875356       15.7843744010       -9.9277101174  MEMB      74              0.0000000000
     10625       102  DOPC      C25            -0.6896385763       15.9864430024       -8.1909845955  MEMB      74              0.0000000000
     10626       102  DOPC      H5R             0.1306627023       16.3821972963       -7.5484221250  MEMB      74              0.0000000000
     10627       102  DOPC      H5S            -0.6382363596       14.8806148612       -8.1495413767  MEMB      74              0.0000000000
     10628       102  DOPC      C26            -2.0447889964       16.4212430561       -7.5971373521  MEMB      74              0.0000000000
     10629       102  DOPC      H6R            -2.8684364660       15.7944583163       -7.9957339206  MEMB      74              0.0000000000
     10630       102  DOPC      H6S            -2.2515148299       17.4630026343       -7.9171002357  MEMB      74              0.0000000000
     10631       102  DOPC      C27            -2.0510829877       16.4016903781       -6.0483267630  MEMB      74              0.0000000000
     10632       102  DOPC      H7R            -2.8489957988       17.0916979817       -5.6889574163  MEMB      74              0.0000000000
     10633       102  DOPC      H7S            -1.0828933262       16.8184283117       -5.6880316707  MEMB      74              0.0000000000
     10634       102  DOPC      C28            -2.2922599192       15.0268399391       -5.3780707703  MEMB      74              0.0000000000
     10635       102  DOPC      H8R            -3.3621656275       14.7481431744       -5.5045732140  MEMB      74              0.0000000000
     10636       102  DOPC      H8S            -2.1399411312       15.1495323420       -4.2818302344  MEMB      74              0.0000000000
     10637       102  DOPC      C29            -1.4143761080       13.9321985637       -5.9303060984  MEMB      74              0.0000000000
     10638       102  DOPC      H9R            -1.7442181067       13.5404843612       -6.9050105271  MEMB      74              0.0000000000
     10639       102  DOPC      C210           -0.3055420962       13.4064972709       -5.3859608648  MEMB      74              0.0000000000
     10640       102  DOPC      H10R            0.2418003818       12.6285033279       -5.9400605138  MEMB      74              0.0000000000
     10641       102  DOPC      C211            0.3208311839       13.7945392044       -4.0765945413  MEMB      74              0.0000000000
     10642       102  DOPC      H11R           -0.1041159518       14.7340316442       -3.6590345577  MEMB      74              0.0000000000
     10643       102  DOPC      H11S            1.4086448671       13.9723915133       -4.2279187452  MEMB      74              0.0000000000
     10644       102  DOPC      C212            0.1629074996       12.6578845246       -3.0521585076  MEMB      74              0.0000000000
     10645       102  DOPC      H12R            0.6203948634       13.0058613944       -2.0993940606  MEMB      74              0.0000000000
     10646       102  DOPC      H12S            0.7430625073       11.7720185588       -3.3927305692  MEMB      74              0.0000000000
     10647       102  DOPC      C213           -1.2892692609       12.2266204222       -2.7768111811  MEMB      74              0.0000000000
     10648       102  DOPC      H13R           -1.7924780578       11.8897698204       -3.7065251522  MEMB      74              0.0000000000
     10649       102  DOPC      H13S           -1.8630771005       13.1115425511       -2.4367606898  MEMB      74              0.0000000000
     10650       102  DOPC      C214           -1.4015259376       11.1155990409       -1.7231457942  MEMB      74              0.0000000000
     10651       102  DOPC      H14R           -2.4346808305       11.0863249229       -1.3110143526  MEMB      74              0.0000000000
     10652       102  DOPC      H14S           -0.6992202671       11.2793413136       -0.8838260130  MEMB      74              0.0000000000
     10653       102  DOPC      C215           -0.9430648193        9.7274111328       -2.1538456253  MEMB      74              0.0000000000
     10654       102  DOPC      H15R            0.1370847854        9.8023038448       -2.4226832192  MEMB      74              0.0000000000
     10655       102  DOPC      H15S           -1.5141308230        9.3751087137       -3.0362462140  MEMB      74              0.0000000000
     10656       102  DOPC      C216           -1.0975225867        8.7780170753       -0.9591117615  MEMB      74              0.0000000000
     10657       102  DOPC      H16R           -2.1615625951        8.4598680418       -0.8913737575  MEMB      74              0.0000000000
     10658       102  DOPC      H16S           -0.8614424664        9.3345800651       -0.0191358174  MEMB      74              0.0000000000
     10659       102  DOPC      C217           -0.1774174188        7.5585838853       -1.0106796388  MEMB      74              0.0000000000
     10660       102  DOPC      H17R            0.8751623852        7.9210619622       -0.9859002736  MEMB      74              0.0000000000
     10661       102  DOPC      H17S           -0.3461043504        7.0329142477       -1.9740988216  MEMB      74              0.0000000000
     10662       102  DOPC      C218           -0.3943355829        6.6091553106        0.1660204058  MEMB      74              0.0000000000
     10663       102  DOPC      H18R           -0.0941254855        7.1214462956        1.1079350534  MEMB      74              0.0000000000
     10664       102  DOPC      H18S            0.2146035702        5.6913268787        0.0660081172  MEMB      74              0.0000000000
     10665       102  DOPC      H18T           -1.4701255938        6.3359866736        0.2565400254  MEMB      74              0.0000000000
     10666       102  DOPC      C33            -0.1351602760       11.0992531174       -9.2686307966  MEMB      74              0.0000000000
     10667       102  DOPC      H3X            -0.0008293138        9.9955388688       -9.3211454921  MEMB      74              0.0000000000
     10668       102  DOPC      H3Y            -0.4232362584       11.3441141024       -8.2214115380  MEMB      74              0.0000000000
     10669       102  DOPC      C34             1.2433507962       11.7259980658       -9.5598357933  MEMB      74              0.0000000000
     10670       102  DOPC      H4X             1.6422440696       11.3088168291      -10.5131352653  MEMB      74              0.0000000000
     10671       102  DOPC      H4Y             1.9554644411       11.4306265944       -8.7578171078  MEMB      74              0.0000000000
     10672       102  DOPC      C35             1.2274638101       13.2484300653       -9.6696496854  MEMB      74              0.0000000000
     10673       102  DOPC      H5X             0.9900169540       13.6864098972       -8.6794864147  MEMB      74              0.0000000000
     10674       102  DOPC      H5Y             0.4170651158       13.5462240431      -10.3730981129  MEMB      74              0.0000000000
     10675       102  DOPC      C36             2.5240984873       13.8540386395      -10.2301568298  MEMB      74              0.0000000000
     10676       102  DOPC      H6X             2.7945093958       13.3383969056      -11.1792838222  MEMB      74              0.0000000000
     10677       102  DOPC      H6Y             2.3195851216       14.9148868609      -10.4985423269  MEMB      74              0.0000000000
     10678       102  DOPC      C37             3.7401458315       13.8756610670       -9.2889509041  MEMB      74              0.0000000000
     10679       102  DOPC      H7X             4.1664472964       12.8575314996       -9.1866896912  MEMB      74              0.0000000000
     10680       102  DOPC      H7Y             4.5007364335       14.4962216587       -9.8218327486  MEMB      74              0.0000000000
     10681       102  DOPC      C38             3.4694380212       14.4729057536       -7.8938336682  MEMB      74              0.0000000000
     10682       102  DOPC      H8X             3.0746898272       13.6748855418       -7.2232928457  MEMB      74              0.0000000000
     10683       102  DOPC      H8Y             2.6741723459       15.2460529320       -7.9897378014  MEMB      74              0.0000000000
     10684       102  DOPC      C39             4.7289685082       15.0794170382       -7.3258304308  MEMB      74              0.0000000000
     10685       102  DOPC      H9X             5.6655330259       14.7204671576       -7.7801533044  MEMB      74              0.0000000000
     10686       102  DOPC      C310            4.7895887285       15.9991653071       -6.3466449610  MEMB      74              0.0000000000
     10687       102  DOPC      H10X            5.7758701199       16.3716774744       -6.0230763286  MEMB      74              0.0000000000
     10688       102  DOPC      C311            3.6067208059       16.5970726073       -5.6251300547  MEMB      74              0.0000000000
     10689       102  DOPC      H11X            2.6344533706       16.2565050219       -6.0496532123  MEMB      74              0.0000000000
     10690       102  DOPC      H11Y            3.6414380353       17.6959197182       -5.7837885492  MEMB      74              0.0000000000
     10691       102  DOPC      C312            3.5451655452       16.3510731781       -4.0991149811  MEMB      74              0.0000000000
     10692       102  DOPC      H12X            4.5444013564       16.0736493538       -3.6945872385  MEMB      74              0.0000000000
     10693       102  DOPC      H12Y            2.8543005652       15.5058604326       -3.8843992964  MEMB      74              0.0000000000
     10694       102  DOPC      C313            3.0698490182       17.6143622338       -3.3791763197  MEMB      74              0.0000000000
     10695       102  DOPC      H13X            3.7738763776       18.4328139900       -3.6574504598  MEMB      74              0.0000000000
     10696       102  DOPC      H13Y            2.0601171495       17.8802646928       -3.7700454221  MEMB      74              0.0000000000
     10697       102  DOPC      C314            3.0026511874       17.5185149263       -1.8477220720  MEMB      74              0.0000000000
     10698       102  DOPC      H14X            2.1113472650       16.9121289687       -1.5706146793  MEMB      74              0.0000000000
     10699       102  DOPC      H14Y            3.8990898357       17.0042550145       -1.4375375996  MEMB      74              0.0000000000
     10700       102  DOPC      C315            2.8694491182       18.9118154152       -1.2182006235  MEMB      74              0.0000000000
     10701       102  DOPC      H15X            2.3655550063       19.5746466584       -1.9657521518  MEMB      74              0.0000000000
     10702       102  DOPC      H15Y            3.8705605689       19.3599746361       -1.0260621208  MEMB      74              0.0000000000
     10703       102  DOPC      C316            2.0216248646       18.9493354910        0.0578472908  MEMB      74              0.0000000000
     10704       102  DOPC      H16X            1.9288047209       20.0169995751        0.3566119377  MEMB      74              0.0000000000
     10705       102  DOPC      H16Y            0.9989058262       18.5352195819       -0.1115929527  MEMB      74              0.0000000000
     10706       102  DOPC      C317            2.6084874398       18.3135237494        1.3047950517  MEMB      74              0.0000000000
     10707       102  DOPC      H17X            2.6332460043       17.2080333556        1.1979156388  MEMB      74              0.0000000000
     10708       102  DOPC      H17Y            3.6529174827       18.6716035904        1.4421073832  MEMB      74              0.0000000000
     10709       102  DOPC      C318            1.7522410837       18.7635268453        2.4910536423  MEMB      74              0.0000000000
     10710       102  DOPC      H18X            1.9292682618       18.1377372421        3.3849783428  MEMB      74              0.0000000000
     10711       102  DOPC      H18Y            1.9703359289       19.8208039478        2.7468800979  MEMB      74              0.0000000000
     10712       102  DOPC      H18Z            0.6735661637       18.6976880010        2.2334220177  MEMB      74              0.0000000000
     10713       103  DOPC      N              10.1591303666       12.2784325030      -18.5615598850  MEMB      75              0.0000000000
     10714       103  DOPC      C12             9.2858714219       11.8147038330      -19.7395262282  MEMB      75              0.0000000000
     10715       103  DOPC      H12A            9.8751268746       11.3204492383      -20.5018259742  MEMB      75              0.0000000000
     10716       103  DOPC      H12B            8.8385344757       12.7001291959      -20.2016441555  MEMB      75              0.0000000000
     10717       103  DOPC      C13            11.3276045062       13.0909827597      -19.0258569769  MEMB      75              0.0000000000
     10718       103  DOPC      H13A           12.0322810467       12.4805056937      -19.5860235135  MEMB      75              0.0000000000
     10719       103  DOPC      H13B           11.0252938315       13.9102328057      -19.6680635826  MEMB      75              0.0000000000
     10720       103  DOPC      H13C           11.8686465155       13.4886409081      -18.1660507040  MEMB      75              0.0000000000
     10721       103  DOPC      C14            10.6721748092       11.1108382472      -17.7736262413  MEMB      75              0.0000000000
     10722       103  DOPC      H14A            9.8224383297       10.5315538796      -17.4149577152  MEMB      75              0.0000000000
     10723       103  DOPC      H14B           11.3049610908       10.4740287098      -18.3739818526  MEMB      75              0.0000000000
     10724       103  DOPC      H14C           11.2365024145       11.4406142861      -16.9055433221  MEMB      75              0.0000000000
     10725       103  DOPC      C15             9.2834666276       13.1000248591      -17.6589718622  MEMB      75              0.0000000000
     10726       103  DOPC      H15A            9.7521774526       13.3953387291      -16.7364012698  MEMB      75              0.0000000000
     10727       103  DOPC      H15B            8.4006497218       12.5013923713      -17.3992618678  MEMB      75              0.0000000000
     10728       103  DOPC      H15C            8.8664098684       13.9685493489      -18.1630708930  MEMB      75              0.0000000000
     10729       103  DOPC      C11             8.0659093242       10.8958455540      -19.4344188468  MEMB      75              0.0000000000
     10730       103  DOPC      H11A            7.6532849740       10.5087599272      -20.3985057940  MEMB      75              0.0000000000
     10731       103  DOPC      H11B            8.4013293706       10.0027991516      -18.8677022390  MEMB      75              0.0000000000
     10732       103  DOPC      P               6.0929608226       12.5867815407      -19.4603018075  MEMB      75              0.0000000000
     10733       103  DOPC      O13             5.3445197248       11.8022415963      -20.4659905896  MEMB      75              0.0000000000
     10734       103  DOPC      O14             6.9871824525       13.6455555322      -19.9970294811  MEMB      75              0.0000000000
     10735       103  DOPC      O12             7.0563252913       11.5782693519      -18.6887686120  MEMB      75              0.0000000000
     10736       103  DOPC      O11             5.1171665462       13.1558285617      -18.3436256633  MEMB      75              0.0000000000
     10737       103  DOPC      C1              5.4417008351       13.1879942902      -16.9553361318  MEMB      75              0.0000000000
     10738       103  DOPC      HA              5.0365129827       14.1379264876      -16.5364007172  MEMB      75              0.0000000000
     10739       103  DOPC      HB              6.5345998859       13.2096445845      -16.7721436950  MEMB      75              0.0000000000
     10740       103  DOPC      C2              4.7568351050       12.0445168643      -16.1405680769  MEMB      75              0.0000000000
     10741       103  DOPC      HS              4.9214995652       12.2364117645      -15.0556600436  MEMB      75              0.0000000000
     10742       103  DOPC      O21             5.2489884529       10.7292386851      -16.4549056243  MEMB      75              0.0000000000
     10743       103  DOPC      C21             6.5095448346       10.4962782801      -16.1584740175  MEMB      75              0.0000000000
     10744       103  DOPC      O22             7.3015409279       11.2553497085      -15.6253316748  MEMB      75              0.0000000000
     10745       103  DOPC      C22             6.8313615315        9.0542262706      -16.5329997177  MEMB      75              0.0000000000
     10746       103  DOPC      H2R             7.7903663675        9.0722468693      -17.0861334205  MEMB      75              0.0000000000
     10747       103  DOPC      H2S             6.0526795543        8.6535164761      -17.2127491033  MEMB      75              0.0000000000
     10748       103  DOPC      C3              3.2156576533       12.0943743203      -16.3795051325  MEMB      75              0.0000000000
     10749       103  DOPC      HX              3.0350878257       12.1668298675      -17.4753312693  MEMB      75              0.0000000000
     10750       103  DOPC      HY              2.8304502673       13.0296075319      -15.9253356350  MEMB      75              0.0000000000
     10751       103  DOPC      O31             2.5313822918       10.9332142328      -15.8721837995  MEMB      75              0.0000000000
     10752       103  DOPC      C31             2.4148746097       10.8908280383      -14.5507171639  MEMB      75              0.0000000000
     10753       103  DOPC      O32             2.5266290911       11.8379036899      -13.7942472007  MEMB      75              0.0000000000
     10754       103  DOPC      C32             2.1606961425        9.4388923532      -14.1595588856  MEMB      75              0.0000000000
     10755       103  DOPC      H2X             1.5565735254        9.4135508785      -13.2336641148  MEMB      75              0.0000000000
     10756       103  DOPC      H2Y             1.5706838816        8.9671205027      -14.9736680393  MEMB      75              0.0000000000
     10757       103  DOPC      C23             6.9845079312        8.1833967909      -15.2740044583  MEMB      75              0.0000000000
     10758       103  DOPC      H3R             6.3088863230        7.3012768281      -15.3359096400  MEMB      75              0.0000000000
     10759       103  DOPC      H3S             6.7038281587        8.7438747837      -14.3521146894  MEMB      75              0.0000000000
     10760       103  DOPC      C24             8.4252795191        7.7152094363      -15.1056675646  MEMB      75              0.0000000000
     10761       103  DOPC      H4R             9.0985164374        8.5967859204      -15.0498171842  MEMB      75              0.0000000000
     10762       103  DOPC      H4S             8.7224894993        7.1030922116      -15.9905193037  MEMB      75              0.0000000000
     10763       103  DOPC      C25             8.5738171976        6.8449191551      -13.8632195411  MEMB      75              0.0000000000
     10764       103  DOPC      H5R             9.5124668387        6.2552486592      -13.9272487733  MEMB      75              0.0000000000
     10765       103  DOPC      H5S             7.7558646389        6.1022786801      -13.8915957211  MEMB      75              0.0000000000
     10766       103  DOPC      C26             8.4994518245        7.5641896130      -12.5081221018  MEMB      75              0.0000000000
     10767       103  DOPC      H6R             8.9534917349        6.8666504074      -11.7652981684  MEMB      75              0.0000000000
     10768       103  DOPC      H6S             7.4318313923        7.7254463902      -12.2452338863  MEMB      75              0.0000000000
     10769       103  DOPC      C27             9.2527759985        8.8918786060      -12.3947840768  MEMB      75              0.0000000000
     10770       103  DOPC      H7R             8.7523905818        9.6511074427      -13.0359995130  MEMB      75              0.0000000000
     10771       103  DOPC      H7S            10.2855282482        8.7218356589      -12.7678669121  MEMB      75              0.0000000000
     10772       103  DOPC      C28             9.3556828917        9.3929205256      -10.9436837332  MEMB      75              0.0000000000
     10773       103  DOPC      H8R             9.9479158271        8.6400866537      -10.3759410483  MEMB      75              0.0000000000
     10774       103  DOPC      H8S             8.3443026243        9.4211322308      -10.4925355947  MEMB      75              0.0000000000
     10775       103  DOPC      C29            10.0344161093       10.7413072551      -10.9214227702  MEMB      75              0.0000000000
     10776       103  DOPC      H9R            10.8635905757       10.8287849391      -11.6404270135  MEMB      75              0.0000000000
     10777       103  DOPC      C210            9.7311306795       11.8166650037      -10.1756713852  MEMB      75              0.0000000000
     10778       103  DOPC      H10R           10.3395583962       12.7265010344      -10.2994631577  MEMB      75              0.0000000000
     10779       103  DOPC      C211            8.6245443216       11.9366213543       -9.1634985115  MEMB      75              0.0000000000
     10780       103  DOPC      H11R            8.1225524873       10.9602634386       -8.9675390160  MEMB      75              0.0000000000
     10781       103  DOPC      H11S            7.8415788432       12.6330412654       -9.5358626857  MEMB      75              0.0000000000
     10782       103  DOPC      C212            9.1501856720       12.4747876469       -7.8236401596  MEMB      75              0.0000000000
     10783       103  DOPC      H12R            9.8152682639       13.3567220227       -7.9361298116  MEMB      75              0.0000000000
     10784       103  DOPC      H12S            9.7544689011       11.6756242599       -7.3578526618  MEMB      75              0.0000000000
     10785       103  DOPC      C213            7.9851204315       12.8356265064       -6.9061039065  MEMB      75              0.0000000000
     10786       103  DOPC      H13R            7.2106382809       12.0526423836       -7.0690741012  MEMB      75              0.0000000000
     10787       103  DOPC      H13S            7.5533159504       13.8125992321       -7.2113620988  MEMB      75              0.0000000000
     10788       103  DOPC      C214            8.3420925743       12.8825702477       -5.4187645278  MEMB      75              0.0000000000
     10789       103  DOPC      H14R            9.2038746226       13.5599360591       -5.2400080467  MEMB      75              0.0000000000
     10790       103  DOPC      H14S            8.6395997932       11.8738231287       -5.0849001628  MEMB      75              0.0000000000
     10791       103  DOPC      C215            7.1627246985       13.3139792222       -4.5522813914  MEMB      75              0.0000000000
     10792       103  DOPC      H15R            6.9163537160       14.3727383788       -4.7862114269  MEMB      75              0.0000000000
     10793       103  DOPC      H15S            7.4542347845       13.2527755675       -3.4796202822  MEMB      75              0.0000000000
     10794       103  DOPC      C216            5.9097435258       12.4665662930       -4.7761427969  MEMB      75              0.0000000000
     10795       103  DOPC      H16R            6.0764538338       11.4538236490       -4.3506963116  MEMB      75              0.0000000000
     10796       103  DOPC      H16S            5.6822819825       12.3417612613       -5.8555074646  MEMB      75              0.0000000000
     10797       103  DOPC      C217            4.6808527588       13.1297115411       -4.1745609904  MEMB      75              0.0000000000
     10798       103  DOPC      H17R            3.7478458866       12.5579636368       -4.3418784552  MEMB      75              0.0000000000
     10799       103  DOPC      H17S            4.5259113917       14.0774022432       -4.7114449872  MEMB      75              0.0000000000
     10800       103  DOPC      C218            4.8363861758       13.4147416562       -2.7017882940  MEMB      75              0.0000000000
     10801       103  DOPC      H18R            3.8835657239       13.8427357008       -2.3412438286  MEMB      75              0.0000000000
     10802       103  DOPC      H18S            5.6286563106       14.1655968108       -2.5342694044  MEMB      75              0.0000000000
     10803       103  DOPC      H18T            5.0824013066       12.4860238303       -2.1392669653  MEMB      75              0.0000000000
     10804       103  DOPC      C33             3.4696865334        8.6409981564      -13.9640704725  MEMB      75              0.0000000000
     10805       103  DOPC      H3X             4.2507346524        8.9479305037      -14.6934610148  MEMB      75              0.0000000000
     10806       103  DOPC      H3Y             3.2369189627        7.5706995572      -14.1702329178  MEMB      75              0.0000000000
     10807       103  DOPC      C34             4.0100285026        8.7001489914      -12.5287888946  MEMB      75              0.0000000000
     10808       103  DOPC      H4X             4.7648171060        7.8915858627      -12.4019443607  MEMB      75              0.0000000000
     10809       103  DOPC      H4Y             3.1771024646        8.4945415107      -11.8170571365  MEMB      75              0.0000000000
     10810       103  DOPC      C35             4.6818543968       10.0327071602      -12.1768882571  MEMB      75              0.0000000000
     10811       103  DOPC      H5X             3.9118230887       10.8312162080      -12.0836246832  MEMB      75              0.0000000000
     10812       103  DOPC      H5Y             5.3822277490       10.3253430141      -12.9898486449  MEMB      75              0.0000000000
     10813       103  DOPC      C36             5.4586233713        9.9750977186      -10.8583753706  MEMB      75              0.0000000000
     10814       103  DOPC      H6X             6.2735015140        9.2236242103      -10.9190204703  MEMB      75              0.0000000000
     10815       103  DOPC      H6Y             5.9251520751       10.9750502551      -10.7055182946  MEMB      75              0.0000000000
     10816       103  DOPC      C37             4.5472093587        9.6449395888       -9.6749563830  MEMB      75              0.0000000000
     10817       103  DOPC      H7X             3.5019872874        9.9335009514       -9.9300799494  MEMB      75              0.0000000000
     10818       103  DOPC      H7Y             4.5197281354        8.5410082345       -9.5328046403  MEMB      75              0.0000000000
     10819       103  DOPC      C38             4.9365784936       10.4103684355       -8.4016537917  MEMB      75              0.0000000000
     10820       103  DOPC      H8X             4.0377219490       10.9571145572       -8.0409525391  MEMB      75              0.0000000000
     10821       103  DOPC      H8Y             5.6892359298       11.1910262743       -8.6387745348  MEMB      75              0.0000000000
     10822       103  DOPC      C39             5.4931317496        9.4794234087       -7.3676546102  MEMB      75              0.0000000000
     10823       103  DOPC      H9X             6.3223908807        8.8699523190       -7.7093234282  MEMB      75              0.0000000000
     10824       103  DOPC      C310            5.0026409708        9.2960247309       -6.1400680435  MEMB      75              0.0000000000
     10825       103  DOPC      H10X            5.4233372617        8.5137793499       -5.4860021856  MEMB      75              0.0000000000
     10826       103  DOPC      C311            3.7905307319       10.0404613618       -5.6595015368  MEMB      75              0.0000000000
     10827       103  DOPC      H11X            2.9869330363        9.9602515940       -6.4212657136  MEMB      75              0.0000000000
     10828       103  DOPC      H11Y            3.9883969801       11.1148514486       -5.6354473812  MEMB      75              0.0000000000
     10829       103  DOPC      C312            3.2309568648        9.5413367045       -4.3249274614  MEMB      75              0.0000000000
     10830       103  DOPC      H12X            3.4810901076        8.4697836638       -4.1938723867  MEMB      75              0.0000000000
     10831       103  DOPC      H12Y            2.1218413919        9.6567727314       -4.3309194061  MEMB      75              0.0000000000
     10832       103  DOPC      C313            3.7803172522       10.1676703132       -3.0571838839  MEMB      75              0.0000000000
     10833       103  DOPC      H13X            4.8791628281       10.2988463157       -3.1318078979  MEMB      75              0.0000000000
     10834       103  DOPC      H13Y            3.3057473813       11.1567728049       -2.9210314742  MEMB      75              0.0000000000
     10835       103  DOPC      C314            3.4752741700        9.2625419898       -1.8652809313  MEMB      75              0.0000000000
     10836       103  DOPC      H14X            2.4895343096        8.7745890917       -2.0153175982  MEMB      75              0.0000000000
     10837       103  DOPC      H14Y            4.2309664366        8.4580232922       -1.8615485410  MEMB      75              0.0000000000
     10838       103  DOPC      C315            3.4993811272       10.0061732185       -0.5365246527  MEMB      75              0.0000000000
     10839       103  DOPC      H15X            4.4726357605       10.5369389032       -0.4438761881  MEMB      75              0.0000000000
     10840       103  DOPC      H15Y            3.4389955070        9.2661942182        0.2946833430  MEMB      75              0.0000000000
     10841       103  DOPC      C316            2.3319718003       10.9948039998       -0.4023311956  MEMB      75              0.0000000000
     10842       103  DOPC      H16X            1.9849012220       11.3835764568       -1.3767146852  MEMB      75              0.0000000000
     10843       103  DOPC      H16Y            1.4790482431       10.4174803880        0.0299689517  MEMB      75              0.0000000000
     10844       103  DOPC      C317            2.6455484794       12.1546045545        0.5456147766  MEMB      75              0.0000000000
     10845       103  DOPC      H17X            1.7081632931       12.4252069069        1.0352028692  MEMB      75              0.0000000000
     10846       103  DOPC      H17Y            3.3275251066       11.7410562039        1.3092643824  MEMB      75              0.0000000000
     10847       103  DOPC      C318            3.0518871980       13.5255129842        0.0065523697  MEMB      75              0.0000000000
     10848       103  DOPC      H18X            2.8717981855       14.3059682945        0.7780947494  MEMB      75              0.0000000000
     10849       103  DOPC      H18Y            4.1235617055       13.5747379720       -0.2578045737  MEMB      75              0.0000000000
     10850       103  DOPC      H18Z            2.4148942869       13.7975109340       -0.8627220980  MEMB      75              0.0000000000
     10851       104  DOPC      N              12.3011567730      -14.3087283048      -20.8618205353  MEMB      76              0.0000000000
     10852       104  DOPC      C12            12.9173761167      -14.2736321868      -19.4787748478  MEMB      76              0.0000000000
     10853       104  DOPC      H12A           13.2265989985      -13.2648625168      -19.2443867222  MEMB      76              0.0000000000
     10854       104  DOPC      H12B           13.7827866220      -14.9242150258      -19.4659859889  MEMB      76              0.0000000000
     10855       104  DOPC      C13            11.2943928842      -13.2109790458      -21.0124796518  MEMB      76              0.0000000000
     10856       104  DOPC      H13A           10.6904344205      -13.4037845178      -21.8935356801  MEMB      76              0.0000000000
     10857       104  DOPC      H13B           10.6503753402      -13.1908218805      -20.1335453254  MEMB      76              0.0000000000
     10858       104  DOPC      H13C           11.7381041434      -12.2353270398      -21.1261847293  MEMB      76              0.0000000000
     10859       104  DOPC      C14            11.5602885618      -15.6129788714      -20.9736319836  MEMB      76              0.0000000000
     10860       104  DOPC      H14A           10.9300531636      -15.7318138442      -20.0930214254  MEMB      76              0.0000000000
     10861       104  DOPC      H14B           10.9253025451      -15.6293827947      -21.8573894148  MEMB      76              0.0000000000
     10862       104  DOPC      H14C           12.2379501841      -16.4446244408      -21.0350729160  MEMB      76              0.0000000000
     10863       104  DOPC      C15            13.2170791494      -14.1847873451      -22.0349464307  MEMB      76              0.0000000000
     10864       104  DOPC      H15A           13.9167112786      -15.0051826997      -22.1237200138  MEMB      76              0.0000000000
     10865       104  DOPC      H15B           13.7134807608      -13.2259435989      -22.0537695144  MEMB      76              0.0000000000
     10866       104  DOPC      H15C           12.5898755687      -14.2227352318      -22.9395591374  MEMB      76              0.0000000000
     10867       104  DOPC      C11            11.9768267423      -14.7659618476      -18.3300123583  MEMB      76              0.0000000000
     10868       104  DOPC      H11A           11.9133547572      -15.8760754565      -18.3697955971  MEMB      76              0.0000000000
     10869       104  DOPC      H11B           12.4174306375      -14.5294922538      -17.3394549398  MEMB      76              0.0000000000
     10870       104  DOPC      P               9.8278941470      -13.3504608499      -17.5120647934  MEMB      76              0.0000000000
     10871       104  DOPC      O13             8.5525312433      -14.0486003347      -17.2543168416  MEMB      76              0.0000000000
     10872       104  DOPC      O14             9.7362980578      -12.0697668187      -18.2645896336  MEMB      76              0.0000000000
     10873       104  DOPC      O12            10.6571095675      -14.2724486270      -18.4679461957  MEMB      76              0.0000000000
     10874       104  DOPC      O11            10.7406354546      -13.1537814250      -16.2245905909  MEMB      76              0.0000000000
     10875       104  DOPC      C1             11.8330941666      -12.2188802868      -16.2522621807  MEMB      76              0.0000000000
     10876       104  DOPC      HA             11.9639259091      -11.7186304791      -17.2406890415  MEMB      76              0.0000000000
     10877       104  DOPC      HB             12.7736076239      -12.7761646555      -16.0431696891  MEMB      76              0.0000000000
     10878       104  DOPC      C2             11.7437059580      -11.1040560134      -15.1706530759  MEMB      76              0.0000000000
     10879       104  DOPC      HS             12.6620730646      -10.4965443473      -15.2624745808  MEMB      76              0.0000000000
     10880       104  DOPC      O21            11.7017424571      -11.7575022523      -13.8917872893  MEMB      76              0.0000000000
     10881       104  DOPC      C21            12.0627848833      -11.0547689148      -12.8314053605  MEMB      76              0.0000000000
     10882       104  DOPC      O22            12.2832843820       -9.8612522010      -12.8034373688  MEMB      76              0.0000000000
     10883       104  DOPC      C22            12.2563570129      -12.0305389812      -11.6674166460  MEMB      76              0.0000000000
     10884       104  DOPC      H2R            12.7501788269      -12.9405808914      -12.0674923154  MEMB      76              0.0000000000
     10885       104  DOPC      H2S            11.2458127802      -12.3052394520      -11.3031589631  MEMB      76              0.0000000000
     10886       104  DOPC      C3             10.5168444538      -10.1552771845      -15.3948592345  MEMB      76              0.0000000000
     10887       104  DOPC      HX             10.6363353926       -9.7558763066      -16.4251451243  MEMB      76              0.0000000000
     10888       104  DOPC      HY             10.5913165496       -9.2706662606      -14.7185535697  MEMB      76              0.0000000000
     10889       104  DOPC      O31             9.2424915860      -10.8418128365      -15.3203048935  MEMB      76              0.0000000000
     10890       104  DOPC      C31             8.8413492894      -10.9928366904      -14.0603256840  MEMB      76              0.0000000000
     10891       104  DOPC      O32             9.2253389267      -10.2961479124      -13.1349698158  MEMB      76              0.0000000000
     10892       104  DOPC      C32             7.8551209943      -12.1288556423      -13.9225344017  MEMB      76              0.0000000000
     10893       104  DOPC      H2X             6.8742640508      -11.8043839352      -14.3042718623  MEMB      76              0.0000000000
     10894       104  DOPC      H2Y             8.2349857870      -12.9580382493      -14.5649231608  MEMB      76              0.0000000000
     10895       104  DOPC      C23            13.1039707193      -11.4484086532      -10.5128916859  MEMB      76              0.0000000000
     10896       104  DOPC      H3R            12.5436442157      -10.5974354943      -10.0634662131  MEMB      76              0.0000000000
     10897       104  DOPC      H3S            14.0713158669      -11.0529775293      -10.8983559090  MEMB      76              0.0000000000
     10898       104  DOPC      C24            13.4163064982      -12.4955219629       -9.4345375855  MEMB      76              0.0000000000
     10899       104  DOPC      H4R            14.1940780774      -13.1904656676       -9.8224515693  MEMB      76              0.0000000000
     10900       104  DOPC      H4S            12.4934772732      -13.0936807906       -9.2522445852  MEMB      76              0.0000000000
     10901       104  DOPC      C25            13.8843760205      -11.8993315253       -8.0929776523  MEMB      76              0.0000000000
     10902       104  DOPC      H5R            14.7199544583      -11.1829537116       -8.2451989044  MEMB      76              0.0000000000
     10903       104  DOPC      H5S            14.2529807556      -12.7420168996       -7.4656797519  MEMB      76              0.0000000000
     10904       104  DOPC      C26            12.7230790981      -11.2188009574       -7.3615686925  MEMB      76              0.0000000000
     10905       104  DOPC      H6R            11.9036274796      -11.9690196949       -7.3442233256  MEMB      76              0.0000000000
     10906       104  DOPC      H6S            12.3900151793      -10.3324705928       -7.9448670484  MEMB      76              0.0000000000
     10907       104  DOPC      C27            12.9334754397      -10.7709555837       -5.9080164353  MEMB      76              0.0000000000
     10908       104  DOPC      H7R            12.0597292060      -10.1268458917       -5.6513472252  MEMB      76              0.0000000000
     10909       104  DOPC      H7S            13.8333823017      -10.1294680734       -5.7998277772  MEMB      76              0.0000000000
     10910       104  DOPC      C28            12.9052303090      -11.9362031394       -4.9107584616  MEMB      76              0.0000000000
     10911       104  DOPC      H8R            12.2543075203      -12.7515390647       -5.3015223012  MEMB      76              0.0000000000
     10912       104  DOPC      H8S            12.4297083146      -11.5732604675       -3.9700072479  MEMB      76              0.0000000000
     10913       104  DOPC      C29            14.3001630325      -12.4333510075       -4.6633765487  MEMB      76              0.0000000000
     10914       104  DOPC      H9R            15.0129927512      -12.2832956291       -5.4874977635  MEMB      76              0.0000000000
     10915       104  DOPC      C210           14.7242187904      -12.9991306156       -3.5297135437  MEMB      76              0.0000000000
     10916       104  DOPC      H10R           15.7817943979      -13.2915789153       -3.4511166429  MEMB      76              0.0000000000
     10917       104  DOPC      C211           13.8812113168      -13.2439428140       -2.3023053468  MEMB      76              0.0000000000
     10918       104  DOPC      H11R           12.8089983169      -13.0491236635       -2.4892793259  MEMB      76              0.0000000000
     10919       104  DOPC      H11S           14.1085498064      -12.5347305368       -1.4964280625  MEMB      76              0.0000000000
     10920       104  DOPC      C212           14.1142561809      -14.6414119067       -1.7030057666  MEMB      76              0.0000000000
     10921       104  DOPC      H12R           13.6159921045      -14.6538681783       -0.7100146931  MEMB      76              0.0000000000
     10922       104  DOPC      H12S           15.1983380247      -14.8111479632       -1.5122264534  MEMB      76              0.0000000000
     10923       104  DOPC      C213           13.5353768831      -15.7737909910       -2.5609133837  MEMB      76              0.0000000000
     10924       104  DOPC      H13R           13.4474811215      -16.6983596845       -1.9504066917  MEMB      76              0.0000000000
     10925       104  DOPC      H13S           14.2465596416      -15.9817107875       -3.3940449384  MEMB      76              0.0000000000
     10926       104  DOPC      C214           12.1802421160      -15.4216675236       -3.1944479983  MEMB      76              0.0000000000
     10927       104  DOPC      H14R           11.7957377407      -16.2794591679       -3.7791680575  MEMB      76              0.0000000000
     10928       104  DOPC      H14S           12.3566738172      -14.6145182853       -3.9402291754  MEMB      76              0.0000000000
     10929       104  DOPC      C215           11.0876908939      -14.9377867967       -2.2261473620  MEMB      76              0.0000000000
     10930       104  DOPC      H15R           11.4991215135      -14.3275282442       -1.3941364282  MEMB      76              0.0000000000
     10931       104  DOPC      H15S           10.6120764350      -15.8260930378       -1.7639276821  MEMB      76              0.0000000000
     10932       104  DOPC      C216           10.0684935867      -14.0842186810       -2.9949363752  MEMB      76              0.0000000000
     10933       104  DOPC      H16R            9.8118064487      -14.6278811502       -3.9329722740  MEMB      76              0.0000000000
     10934       104  DOPC      H16S           10.5346504402      -13.1167490394       -3.2901984294  MEMB      76              0.0000000000
     10935       104  DOPC      C217            8.7796265752      -13.8024820807       -2.2276708052  MEMB      76              0.0000000000
     10936       104  DOPC      H17R            8.9477268189      -12.9933584072       -1.4825888663  MEMB      76              0.0000000000
     10937       104  DOPC      H17S            8.5166138409      -14.7152487125       -1.6523814232  MEMB      76              0.0000000000
     10938       104  DOPC      C218            7.6185724183      -13.4249019290       -3.1499301972  MEMB      76              0.0000000000
     10939       104  DOPC      H18R            7.3355845834      -14.2587560262       -3.8252357087  MEMB      76              0.0000000000
     10940       104  DOPC      H18S            6.7261142333      -13.1813373634       -2.5413831311  MEMB      76              0.0000000000
     10941       104  DOPC      H18T            7.8686765499      -12.5467565950       -3.7809026376  MEMB      76              0.0000000000
     10942       104  DOPC      C33             7.8166936248      -12.6232962748      -12.4550062246  MEMB      76              0.0000000000
     10943       104  DOPC      H3X             8.8661869494      -12.8699296167      -12.1669858366  MEMB      76              0.0000000000
     10944       104  DOPC      H3Y             7.2359174188      -13.5713651908      -12.4119306534  MEMB      76              0.0000000000
     10945       104  DOPC      C34             7.2601945647      -11.6671830666      -11.3743863268  MEMB      76              0.0000000000
     10946       104  DOPC      H4X             6.1539768861      -11.6255856385      -11.4113351473  MEMB      76              0.0000000000
     10947       104  DOPC      H4Y             7.6140327925      -10.6252198999      -11.5220887883  MEMB      76              0.0000000000
     10948       104  DOPC      C35             7.7207453041      -12.1349111233       -9.9780980000  MEMB      76              0.0000000000
     10949       104  DOPC      H5X             8.7860646434      -12.4500470073      -10.0500265150  MEMB      76              0.0000000000
     10950       104  DOPC      H5Y             7.1285849478      -13.0363637967       -9.7271361481  MEMB      76              0.0000000000
     10951       104  DOPC      C36             7.6145125778      -11.0538453150       -8.8840864962  MEMB      76              0.0000000000
     10952       104  DOPC      H6X             8.2699496895      -10.2071473920       -9.1843438368  MEMB      76              0.0000000000
     10953       104  DOPC      H6Y             6.5736129643      -10.6663796852       -8.8455530015  MEMB      76              0.0000000000
     10954       104  DOPC      C37             8.0020684948      -11.4920263481       -7.4536048860  MEMB      76              0.0000000000
     10955       104  DOPC      H7X             7.2626258465      -11.0935180559       -6.7248055623  MEMB      76              0.0000000000
     10956       104  DOPC      H7Y             7.9722111582      -12.6017844822       -7.3679293964  MEMB      76              0.0000000000
     10957       104  DOPC      C38             9.4107749021      -11.0156882640       -7.0595979332  MEMB      76              0.0000000000
     10958       104  DOPC      H8X            10.0636567589      -11.4783491244       -7.8287312357  MEMB      76              0.0000000000
     10959       104  DOPC      H8Y             9.7004609577      -11.4418257755       -6.0718656322  MEMB      76              0.0000000000
     10960       104  DOPC      C39             9.6919001983       -9.5368880243       -7.0638121967  MEMB      76              0.0000000000
     10961       104  DOPC      H9X            10.3481282358       -9.2125769913       -7.8856544742  MEMB      76              0.0000000000
     10962       104  DOPC      C310            9.2032407442       -8.6037146942       -6.2349104128  MEMB      76              0.0000000000
     10963       104  DOPC      H10X            9.5803623563       -7.5755792112       -6.3283396899  MEMB      76              0.0000000000
     10964       104  DOPC      C311            8.2461472893       -8.7902936602       -5.0931983897  MEMB      76              0.0000000000
     10965       104  DOPC      H11X            7.8154656500       -9.8132146118       -5.0826099068  MEMB      76              0.0000000000
     10966       104  DOPC      H11Y            7.3932311020       -8.0849981469       -5.1939261798  MEMB      76              0.0000000000
     10967       104  DOPC      C312            8.9370780712       -8.5404125385       -3.7501687321  MEMB      76              0.0000000000
     10968       104  DOPC      H12X            8.1560109692       -8.5329570949       -2.9573883441  MEMB      76              0.0000000000
     10969       104  DOPC      H12Y            9.4260863454       -7.5397783274       -3.7309119021  MEMB      76              0.0000000000
     10970       104  DOPC      C313            9.9606157214       -9.6399328105       -3.4386544533  MEMB      76              0.0000000000
     10971       104  DOPC      H13X            9.5803444695      -10.6185803701       -3.8089298582  MEMB      76              0.0000000000
     10972       104  DOPC      H13Y           10.9034320975       -9.4107971481       -3.9829682438  MEMB      76              0.0000000000
     10973       104  DOPC      C314           10.2687425963       -9.7780976777       -1.9504417110  MEMB      76              0.0000000000
     10974       104  DOPC      H14X            9.3720069991      -10.1596004856       -1.4166234099  MEMB      76              0.0000000000
     10975       104  DOPC      H14Y           11.0855334842      -10.5252576792       -1.8285355023  MEMB      76              0.0000000000
     10976       104  DOPC      C315           10.6894094213       -8.4460425015       -1.3362899808  MEMB      76              0.0000000000
     10977       104  DOPC      H15X            9.8811373518       -7.6896538574       -1.4586419822  MEMB      76              0.0000000000
     10978       104  DOPC      H15Y           11.5833443696       -8.0659108684       -1.8811804566  MEMB      76              0.0000000000
     10979       104  DOPC      C316           11.0011158289       -8.5462949990        0.1551093855  MEMB      76              0.0000000000
     10980       104  DOPC      H16X           11.1906891331       -7.5146599656        0.4918488176  MEMB      76              0.0000000000
     10981       104  DOPC      H16Y           10.1177646894       -8.9168605916        0.7203550551  MEMB      76              0.0000000000
     10982       104  DOPC      C317           12.2400978640       -9.3761388747        0.4760977548  MEMB      76              0.0000000000
     10983       104  DOPC      H17X           12.8103912127       -9.5305045841       -0.4650483512  MEMB      76              0.0000000000
     10984       104  DOPC      H17Y           12.8970441220       -8.8032567702        1.1723656078  MEMB      76              0.0000000000
     10985       104  DOPC      C318           11.8822791961      -10.7077977431        1.1226179284  MEMB      76              0.0000000000
     10986       104  DOPC      H18X           11.2120420823      -11.3006322113        0.4639921867  MEMB      76              0.0000000000
     10987       104  DOPC      H18Y           12.7876944632      -11.3064303495        1.3328838639  MEMB      76              0.0000000000
     10988       104  DOPC      H18Z           11.3568622205      -10.5191269121        2.0845108924  MEMB      76              0.0000000000
     10989       105  DOPC      N              17.3570621914       -0.3580663244      -21.1507184071  MEMB      77              0.0000000000
     10990       105  DOPC      C12            16.5730062923       -0.1640199953      -19.8660157366  MEMB      77              0.0000000000
     10991       105  DOPC      H12A           15.5688141047       -0.5591883806      -19.9541555777  MEMB      77              0.0000000000
     10992       105  DOPC      H12B           16.4659084400        0.9047415082      -19.6700380917  MEMB      77              0.0000000000
     10993       105  DOPC      C13            17.0944430978       -1.7236479734      -21.6796025926  MEMB      77              0.0000000000
     10994       105  DOPC      H13A           17.6326114881       -1.8786526541      -22.6106654306  MEMB      77              0.0000000000
     10995       105  DOPC      H13B           17.4155682049       -2.4790399002      -20.9702171677  MEMB      77              0.0000000000
     10996       105  DOPC      H13C           16.0395689645       -1.9137437320      -21.8580356343  MEMB      77              0.0000000000
     10997       105  DOPC      C14            18.8252218081       -0.1806511184      -20.8899581639  MEMB      77              0.0000000000
     10998       105  DOPC      H14A           19.4347827653       -0.3484772660      -21.7662402848  MEMB      77              0.0000000000
     10999       105  DOPC      H14B           19.0028794046        0.8381275170      -20.5356803425  MEMB      77              0.0000000000
     11000       105  DOPC      H14C           19.1399740691       -0.7933821207      -20.0480753549  MEMB      77              0.0000000000
     11001       105  DOPC      C15            16.9212906968        0.6652615381      -22.1504788985  MEMB      77              0.0000000000
     11002       105  DOPC      H15A           16.9424625796        1.6394073843      -21.6632553714  MEMB      77              0.0000000000
     11003       105  DOPC      H15B           15.9187498803        0.4516494966      -22.5189846184  MEMB      77              0.0000000000
     11004       105  DOPC      H15C           17.6170394211        0.7031831418      -22.9779970832  MEMB      77              0.0000000000
     11005       105  DOPC      C11            17.2402323064       -0.7083556718      -18.5985932195  MEMB      77              0.0000000000
     11006       105  DOPC      H11A           16.4767678042       -0.8066943802      -17.7868796531  MEMB      77              0.0000000000
     11007       105  DOPC      H11B           17.6387276459       -1.7253824592      -18.8090328797  MEMB      77              0.0000000000
     11008       105  DOPC      P              17.8836397889        1.5582419536      -17.5436214230  MEMB      77              0.0000000000
     11009       105  DOPC      O13            16.9204338727        2.2423896603      -18.4437089045  MEMB      77              0.0000000000
     11010       105  DOPC      O14            19.1105366067        2.2797210951      -17.1659393512  MEMB      77              0.0000000000
     11011       105  DOPC      O12            18.3045166511        0.1617656132      -18.2104189349  MEMB      77              0.0000000000
     11012       105  DOPC      O11            17.1235580732        1.0291333817      -16.2442832010  MEMB      77              0.0000000000
     11013       105  DOPC      C1             17.8919119227        0.1869769823      -15.3789422671  MEMB      77              0.0000000000
     11014       105  DOPC      HA             18.7782261256        0.7301387335      -14.9724828206  MEMB      77              0.0000000000
     11015       105  DOPC      HB             18.2425756378       -0.7218911664      -15.9232257861  MEMB      77              0.0000000000
     11016       105  DOPC      C2             17.0727629137       -0.3301675168      -14.1760424914  MEMB      77              0.0000000000
     11017       105  DOPC      HS             16.0907278640       -0.6952055981      -14.5630182850  MEMB      77              0.0000000000
     11018       105  DOPC      O21            16.8992287534        0.7062897863      -13.2076208362  MEMB      77              0.0000000000
     11019       105  DOPC      C21            16.0628356922        0.3436248425      -12.2614354881  MEMB      77              0.0000000000
     11020       105  DOPC      O22            15.0754749559       -0.3556922150      -12.3960010811  MEMB      77              0.0000000000
     11021       105  DOPC      C22            16.7409699548        0.7159737915      -10.9622448105  MEMB      77              0.0000000000
     11022       105  DOPC      H2R            17.1461590464        1.7330265386      -11.0897887229  MEMB      77              0.0000000000
     11023       105  DOPC      H2S            17.6190268188        0.0490967143      -10.8434351714  MEMB      77              0.0000000000
     11024       105  DOPC      C3             17.8227305879       -1.5073079320      -13.4975073845  MEMB      77              0.0000000000
     11025       105  DOPC      HX             17.3644507334       -2.3959596596      -13.9171324876  MEMB      77              0.0000000000
     11026       105  DOPC      HY             17.6387759777       -1.5690742788      -12.4077911693  MEMB      77              0.0000000000
     11027       105  DOPC      O31            19.2405244795       -1.4732520390      -13.7261815279  MEMB      77              0.0000000000
     11028       105  DOPC      C31            19.7762243904       -2.6793284494      -13.8464296593  MEMB      77              0.0000000000
     11029       105  DOPC      O32            19.1750534374       -3.7223670021      -14.0005043443  MEMB      77              0.0000000000
     11030       105  DOPC      C32            21.2513333108       -2.5763439868      -13.5843877219  MEMB      77              0.0000000000
     11031       105  DOPC      H2X            21.6915069302       -3.5743781832      -13.7338385677  MEMB      77              0.0000000000
     11032       105  DOPC      H2Y            21.7281876871       -1.8719556184      -14.2962877496  MEMB      77              0.0000000000
     11033       105  DOPC      C23            15.7710451623        0.6043110520       -9.7767980085  MEMB      77              0.0000000000
     11034       105  DOPC      H3R            14.7002898149        0.7626185927      -10.0358592053  MEMB      77              0.0000000000
     11035       105  DOPC      H3S            16.0498355055        1.3859236981       -9.0296671932  MEMB      77              0.0000000000
     11036       105  DOPC      C24            15.9773594691       -0.7490653907       -9.1448864448  MEMB      77              0.0000000000
     11037       105  DOPC      H4R            15.6086891354       -0.7720865613       -8.1001737323  MEMB      77              0.0000000000
     11038       105  DOPC      H4S            17.0833940267       -0.8401836687       -9.1184989205  MEMB      77              0.0000000000
     11039       105  DOPC      C25            15.4227569788       -1.9608438716       -9.8947063956  MEMB      77              0.0000000000
     11040       105  DOPC      H5R            15.9207982878       -2.0633581587      -10.8812586499  MEMB      77              0.0000000000
     11041       105  DOPC      H5S            14.3367712947       -1.8362194531      -10.0926821867  MEMB      77              0.0000000000
     11042       105  DOPC      C26            15.6809562603       -3.2472930294       -9.1074362867  MEMB      77              0.0000000000
     11043       105  DOPC      H6R            15.3795467278       -4.1087186492       -9.7481864272  MEMB      77              0.0000000000
     11044       105  DOPC      H6S            15.0421357908       -3.2730528129       -8.1980378382  MEMB      77              0.0000000000
     11045       105  DOPC      C27            17.1654392249       -3.3944829997       -8.7254254284  MEMB      77              0.0000000000
     11046       105  DOPC      H7R            17.7813056910       -3.0575672576       -9.5894397411  MEMB      77              0.0000000000
     11047       105  DOPC      H7S            17.3831633943       -4.4793799616       -8.5912391741  MEMB      77              0.0000000000
     11048       105  DOPC      C28            17.6249561462       -2.6465747969       -7.4476006745  MEMB      77              0.0000000000
     11049       105  DOPC      H8R            17.5088279395       -1.5563562345       -7.4253124061  MEMB      77              0.0000000000
     11050       105  DOPC      H8S            18.7304403217       -2.7484148635       -7.4165759456  MEMB      77              0.0000000000
     11051       105  DOPC      C29            16.9561490253       -3.1440055219       -6.2053496895  MEMB      77              0.0000000000
     11052       105  DOPC      H9R            15.9867956644       -2.7009911265       -5.9249785156  MEMB      77              0.0000000000
     11053       105  DOPC      C210           17.5538368575       -4.0190978503       -5.4084291865  MEMB      77              0.0000000000
     11054       105  DOPC      H10R           17.0972448456       -4.2957856237       -4.4478382732  MEMB      77              0.0000000000
     11055       105  DOPC      C211           18.9223328018       -4.5645011533       -5.6910347336  MEMB      77              0.0000000000
     11056       105  DOPC      H11R           19.2146226178       -4.5973696874       -6.7636130629  MEMB      77              0.0000000000
     11057       105  DOPC      H11S           18.9463529166       -5.6241881356       -5.3458561167  MEMB      77              0.0000000000
     11058       105  DOPC      C212           19.9291818312       -3.7735873474       -4.8519343685  MEMB      77              0.0000000000
     11059       105  DOPC      H12R           19.4901098620       -3.6446264894       -3.8316320447  MEMB      77              0.0000000000
     11060       105  DOPC      H12S           20.8393309275       -4.4153659377       -4.7812785456  MEMB      77              0.0000000000
     11061       105  DOPC      C213           20.4774285780       -2.3904944511       -5.1751933828  MEMB      77              0.0000000000
     11062       105  DOPC      H13R           19.6748145360       -1.6409840046       -5.3594947591  MEMB      77              0.0000000000
     11063       105  DOPC      H13S           21.1383908017       -2.4758625916       -6.0555981977  MEMB      77              0.0000000000
     11064       105  DOPC      C214           21.2826512974       -2.0484330933       -3.9063582232  MEMB      77              0.0000000000
     11065       105  DOPC      H14R           21.8246224901       -2.9697914768       -3.5889071826  MEMB      77              0.0000000000
     11066       105  DOPC      H14S           20.5272056543       -1.8411206057       -3.1206709312  MEMB      77              0.0000000000
     11067       105  DOPC      C215           22.3427450656       -0.9491235801       -3.9486396784  MEMB      77              0.0000000000
     11068       105  DOPC      H15R           21.9429825993       -0.0320892560       -4.4074374131  MEMB      77              0.0000000000
     11069       105  DOPC      H15S           23.1838442535       -1.2830376360       -4.5928152149  MEMB      77              0.0000000000
     11070       105  DOPC      C216           22.8919809845       -0.6072773843       -2.5448529503  MEMB      77              0.0000000000
     11071       105  DOPC      H16R           23.5393214627        0.2916963545       -2.6522996181  MEMB      77              0.0000000000
     11072       105  DOPC      H16S           23.5340522807       -1.4433523745       -2.1894883762  MEMB      77              0.0000000000
     11073       105  DOPC      C217           21.8360610540       -0.3085926135       -1.4593900718  MEMB      77              0.0000000000
     11074       105  DOPC      H17R           22.3528270933        0.1737518298       -0.5974355350  MEMB      77              0.0000000000
     11075       105  DOPC      H17S           21.3991587403       -1.2585718625       -1.0817299746  MEMB      77              0.0000000000
     11076       105  DOPC      C218           20.7067889580        0.6016683978       -1.9294166948  MEMB      77              0.0000000000
     11077       105  DOPC      H18R           19.9626443441        0.0388733775       -2.5250378491  MEMB      77              0.0000000000
     11078       105  DOPC      H18S           21.1322958053        1.3964123140       -2.5742667130  MEMB      77              0.0000000000
     11079       105  DOPC      H18T           20.1696100661        1.0740205916       -1.0856163570  MEMB      77              0.0000000000
     11080       105  DOPC      C33            21.4291914840       -2.1392504485      -12.1224907372  MEMB      77              0.0000000000
     11081       105  DOPC      H3X            21.3890251040       -1.0222123120      -12.0895369182  MEMB      77              0.0000000000
     11082       105  DOPC      H3Y            22.4346749938       -2.4829433365      -11.7891389233  MEMB      77              0.0000000000
     11083       105  DOPC      C34            20.4020190960       -2.6635906468      -11.1188101388  MEMB      77              0.0000000000
     11084       105  DOPC      H4X            20.1320221107       -3.7121588782      -11.3429759313  MEMB      77              0.0000000000
     11085       105  DOPC      H4Y            19.4783707395       -2.0458786209      -11.2002684717  MEMB      77              0.0000000000
     11086       105  DOPC      C35            20.9168592253       -2.5475007322       -9.6858098714  MEMB      77              0.0000000000
     11087       105  DOPC      H5X            21.7386870387       -3.2709633924       -9.4905542900  MEMB      77              0.0000000000
     11088       105  DOPC      H5Y            20.0790000491       -2.7829304028       -8.9983110053  MEMB      77              0.0000000000
     11089       105  DOPC      C36            21.4139124637       -1.1345121103       -9.4200412961  MEMB      77              0.0000000000
     11090       105  DOPC      H6X            22.4181753979       -0.9845880268       -9.8424810710  MEMB      77              0.0000000000
     11091       105  DOPC      H6Y            20.7565920638       -0.4110613522       -9.9520824659  MEMB      77              0.0000000000
     11092       105  DOPC      C37            21.4796314873       -0.7771607123       -7.9455011563  MEMB      77              0.0000000000
     11093       105  DOPC      H7X            20.5404271954       -1.1166975165       -7.4557889902  MEMB      77              0.0000000000
     11094       105  DOPC      H7Y            22.3375490310       -1.2990993516       -7.4650052396  MEMB      77              0.0000000000
     11095       105  DOPC      C38            21.6401668949        0.7253355545       -7.8110153013  MEMB      77              0.0000000000
     11096       105  DOPC      H8X            22.2566329012        1.0563469845       -8.6759071974  MEMB      77              0.0000000000
     11097       105  DOPC      H8Y            22.2003633169        0.9849129768       -6.8845079801  MEMB      77              0.0000000000
     11098       105  DOPC      C39            20.2568140624        1.3155049919       -7.8763825333  MEMB      77              0.0000000000
     11099       105  DOPC      H9X            19.7621024192        1.2602926642       -8.8598738822  MEMB      77              0.0000000000
     11100       105  DOPC      C310           19.6497287487        1.9422922337       -6.8699006882  MEMB      77              0.0000000000
     11101       105  DOPC      H10X           18.5890048378        2.1799196804       -6.9666639917  MEMB      77              0.0000000000
     11102       105  DOPC      C311           20.2313561883        2.1626153616       -5.5085035797  MEMB      77              0.0000000000
     11103       105  DOPC      H11X           21.0115379457        2.9363606307       -5.5821830209  MEMB      77              0.0000000000
     11104       105  DOPC      H11Y           20.7109137759        1.2332664824       -5.1596237442  MEMB      77              0.0000000000
     11105       105  DOPC      C312           19.2008753613        2.5656592989       -4.4428316612  MEMB      77              0.0000000000
     11106       105  DOPC      H12X           18.8355623246        3.5866027409       -4.6497626907  MEMB      77              0.0000000000
     11107       105  DOPC      H12Y           19.6865925323        2.6355458553       -3.4457299697  MEMB      77              0.0000000000
     11108       105  DOPC      C313           18.0680970361        1.5401969105       -4.3401601075  MEMB      77              0.0000000000
     11109       105  DOPC      H13X           17.9995627537        0.9319910293       -5.2658087984  MEMB      77              0.0000000000
     11110       105  DOPC      H13Y           18.3317773299        0.8184741745       -3.5417012413  MEMB      77              0.0000000000
     11111       105  DOPC      C314           16.6847101941        2.1320798142       -4.0832695153  MEMB      77              0.0000000000
     11112       105  DOPC      H14X           16.6360566400        3.2056780263       -4.3585845932  MEMB      77              0.0000000000
     11113       105  DOPC      H14Y           15.9572516585        1.5997295749       -4.7394886718  MEMB      77              0.0000000000
     11114       105  DOPC      C315           16.2599657410        1.9144950824       -2.6358677344  MEMB      77              0.0000000000
     11115       105  DOPC      H15X           15.3192266866        2.4845587561       -2.4566199717  MEMB      77              0.0000000000
     11116       105  DOPC      H15Y           17.0360580197        2.3066754412       -1.9421325899  MEMB      77              0.0000000000
     11117       105  DOPC      C316           16.0083920866        0.4297831553       -2.3474605058  MEMB      77              0.0000000000
     11118       105  DOPC      H16X           15.4611224537       -0.0077422990       -3.2016282021  MEMB      77              0.0000000000
     11119       105  DOPC      H16Y           16.9534968397       -0.1464376178       -2.2584874911  MEMB      77              0.0000000000
     11120       105  DOPC      C317           15.1532785714        0.2426234706       -1.1061441901  MEMB      77              0.0000000000
     11121       105  DOPC      H17X           14.3491523539        1.0115003920       -1.1299598109  MEMB      77              0.0000000000
     11122       105  DOPC      H17Y           14.6386664900       -0.7404768901       -1.1647740816  MEMB      77              0.0000000000
     11123       105  DOPC      C318           15.9525889895        0.3573257408        0.1926080642  MEMB      77              0.0000000000
     11124       105  DOPC      H18X           16.9776281243        0.7367414394       -0.0025992470  MEMB      77              0.0000000000
     11125       105  DOPC      H18Y           15.4499884856        1.0521376478        0.8965156910  MEMB      77              0.0000000000
     11126       105  DOPC      H18Z           16.0432661478       -0.6194053991        0.7064894417  MEMB      77              0.0000000000
     11127       106  DOPC      N              15.4535411016        7.2328262166      -20.4257674571  MEMB      78              0.0000000000
     11128       106  DOPC      C12            16.2088754317        8.4937399396      -20.8244747885  MEMB      78              0.0000000000
     11129       106  DOPC      H12A           15.5312577830        9.1354361901      -21.3705475048  MEMB      78              0.0000000000
     11130       106  DOPC      H12B           17.0119077727        8.2540408820      -21.5085711473  MEMB      78              0.0000000000
     11131       106  DOPC      C13            14.1746085888        7.6053684250      -19.7486688597  MEMB      78              0.0000000000
     11132       106  DOPC      H13A           13.6573310472        6.7401256135      -19.3561744872  MEMB      78              0.0000000000
     11133       106  DOPC      H13B           14.4347042880        8.2826170344      -18.9259387629  MEMB      78              0.0000000000
     11134       106  DOPC      H13C           13.5245915368        8.1564268744      -20.4077861306  MEMB      78              0.0000000000
     11135       106  DOPC      C14            16.2826061984        6.4520128985      -19.4535470693  MEMB      78              0.0000000000
     11136       106  DOPC      H14A           17.2785171615        6.2721893875      -19.8338600889  MEMB      78              0.0000000000
     11137       106  DOPC      H14B           16.4345051214        7.0605877723      -18.5540464091  MEMB      78              0.0000000000
     11138       106  DOPC      H14C           15.8288782103        5.5126077001      -19.1738700728  MEMB      78              0.0000000000
     11139       106  DOPC      C15            15.1461694585        6.4543164445      -21.6558407982  MEMB      78              0.0000000000
     11140       106  DOPC      H15A           14.7806405896        5.4667141229      -21.4222718350  MEMB      78              0.0000000000
     11141       106  DOPC      H15B           16.0397919604        6.3535495547      -22.2580301150  MEMB      78              0.0000000000
     11142       106  DOPC      H15C           14.4019257127        6.9851418983      -22.2412642470  MEMB      78              0.0000000000
     11143       106  DOPC      C11            16.8434405878        9.3107722128      -19.6906367438  MEMB      78              0.0000000000
     11144       106  DOPC      H11A           17.6773903796        8.7132192112      -19.2399935479  MEMB      78              0.0000000000
     11145       106  DOPC      H11B           17.3134831637       10.2296579841      -20.1105011669  MEMB      78              0.0000000000
     11146       106  DOPC      P              16.3213224764       10.1061491733      -17.3163600406  MEMB      78              0.0000000000
     11147       106  DOPC      O13            16.8371584252       11.4856285532      -17.4503735165  MEMB      78              0.0000000000
     11148       106  DOPC      O14            17.2098729270        9.0445126688      -16.7956313447  MEMB      78              0.0000000000
     11149       106  DOPC      O12            15.8297026827        9.6591286607      -18.7518315846  MEMB      78              0.0000000000
     11150       106  DOPC      O11            14.9347262947       10.1506613059      -16.5692345150  MEMB      78              0.0000000000
     11151       106  DOPC      C1             14.0845927750        9.0182557213      -16.4692171302  MEMB      78              0.0000000000
     11152       106  DOPC      HA             14.6467924178        8.0729421560      -16.2701014436  MEMB      78              0.0000000000
     11153       106  DOPC      HB             13.4917733032        8.8923327030      -17.4010506815  MEMB      78              0.0000000000
     11154       106  DOPC      C2             13.1003777933        9.2700031984      -15.3141987322  MEMB      78              0.0000000000
     11155       106  DOPC      HS             12.7653946861       10.3325914575      -15.3926363678  MEMB      78              0.0000000000
     11156       106  DOPC      O21            13.7651737332        8.9760371547      -14.0727861119  MEMB      78              0.0000000000
     11157       106  DOPC      C21            13.5129239326        9.8108615210      -13.0770623174  MEMB      78              0.0000000000
     11158       106  DOPC      O22            12.9178614659       10.8722010199      -13.1788538458  MEMB      78              0.0000000000
     11159       106  DOPC      C22            14.0378014766        9.2014193672      -11.7654140210  MEMB      78              0.0000000000
     11160       106  DOPC      H2R            14.9695817783        9.7299452453      -11.4875957139  MEMB      78              0.0000000000
     11161       106  DOPC      H2S            14.2806981900        8.1371158701      -11.9675821673  MEMB      78              0.0000000000
     11162       106  DOPC      C3             11.8595991023        8.3644671251      -15.4425622476  MEMB      78              0.0000000000
     11163       106  DOPC      HX             11.2700017785        8.6529495792      -16.3369034595  MEMB      78              0.0000000000
     11164       106  DOPC      HY             11.2049968378        8.5715803502      -14.5678989716  MEMB      78              0.0000000000
     11165       106  DOPC      O31            12.2748053918        6.9879982063      -15.5799605970  MEMB      78              0.0000000000
     11166       106  DOPC      C31            12.2148743505        6.2965300019      -14.4319890891  MEMB      78              0.0000000000
     11167       106  DOPC      O32            11.7484880312        6.7222680537      -13.3888538197  MEMB      78              0.0000000000
     11168       106  DOPC      C32            12.9305813697        4.9623689090      -14.5282822643  MEMB      78              0.0000000000
     11169       106  DOPC      H2X            12.1828153960        4.1770985973      -14.7752645370  MEMB      78              0.0000000000
     11170       106  DOPC      H2Y            13.7104251571        4.9980352768      -15.3134600009  MEMB      78              0.0000000000
     11171       106  DOPC      C23            12.9993710727        9.2848618612      -10.6200867800  MEMB      78              0.0000000000
     11172       106  DOPC      H3R            12.1095887251        8.6753537170      -10.9014752123  MEMB      78              0.0000000000
     11173       106  DOPC      H3S            12.6735684977       10.3425226221      -10.4919908403  MEMB      78              0.0000000000
     11174       106  DOPC      C24            13.4903710825        8.8103300217       -9.2442408402  MEMB      78              0.0000000000
     11175       106  DOPC      H4R            12.6294605289        8.7751553049       -8.5387954915  MEMB      78              0.0000000000
     11176       106  DOPC      H4S            14.2120498350        9.5641932752       -8.8515746672  MEMB      78              0.0000000000
     11177       106  DOPC      C25            14.1899413870        7.4490781099       -9.2414436465  MEMB      78              0.0000000000
     11178       106  DOPC      H5R            14.5452795517        7.2373383570       -8.2142081183  MEMB      78              0.0000000000
     11179       106  DOPC      H5S            15.1180660229        7.5515688158       -9.8545301471  MEMB      78              0.0000000000
     11180       106  DOPC      C26            13.3884250731        6.2529474446       -9.8147324031  MEMB      78              0.0000000000
     11181       106  DOPC      H6R            14.1726031320        5.5402949756      -10.1202267256  MEMB      78              0.0000000000
     11182       106  DOPC      H6S            12.8658844959        6.5372314671      -10.7509284528  MEMB      78              0.0000000000
     11183       106  DOPC      C27            12.4342561336        5.4504960796       -8.8818751282  MEMB      78              0.0000000000
     11184       106  DOPC      H7R            12.3042836313        4.4283218295       -9.3018473088  MEMB      78              0.0000000000
     11185       106  DOPC      H7S            11.4433768077        5.9280725660       -8.9377223870  MEMB      78              0.0000000000
     11186       106  DOPC      C28            12.9475371799        5.3512376286       -7.4212323665  MEMB      78              0.0000000000
     11187       106  DOPC      H8R            12.7831063798        6.3268299510       -6.9141011785  MEMB      78              0.0000000000
     11188       106  DOPC      H8S            14.0260848086        5.2846356974       -7.6185360500  MEMB      78              0.0000000000
     11189       106  DOPC      C29            12.7769003454        4.2064016280       -6.4522851075  MEMB      78              0.0000000000
     11190       106  DOPC      H9R            13.6785623058        3.5794741497       -6.3867843904  MEMB      78              0.0000000000
     11191       106  DOPC      C210           11.8013939735        3.9662035012       -5.5591750292  MEMB      78              0.0000000000
     11192       106  DOPC      H10R           11.9194994668        3.1132431453       -4.8700495831  MEMB      78              0.0000000000
     11193       106  DOPC      C211           10.5846836738        4.8044988017       -5.2936674137  MEMB      78              0.0000000000
     11194       106  DOPC      H11R            9.6658535239        4.1922114965       -5.4542945510  MEMB      78              0.0000000000
     11195       106  DOPC      H11S           10.5197597267        5.6580213884       -5.9891712410  MEMB      78              0.0000000000
     11196       106  DOPC      C212           10.5679898173        5.3230831599       -3.8471036502  MEMB      78              0.0000000000
     11197       106  DOPC      H12R           10.6134417761        4.4481787231       -3.1674550791  MEMB      78              0.0000000000
     11198       106  DOPC      H12S            9.5897673966        5.8209725053       -3.6584981531  MEMB      78              0.0000000000
     11199       106  DOPC      C213           11.6744127291        6.3228420353       -3.4533108430  MEMB      78              0.0000000000
     11200       106  DOPC      H13R           11.5099509489        7.2795626821       -3.9795997489  MEMB      78              0.0000000000
     11201       106  DOPC      H13S           12.6842920303        5.9507529882       -3.7191550629  MEMB      78              0.0000000000
     11202       106  DOPC      C214           11.5469930602        6.6469131591       -1.9649992349  MEMB      78              0.0000000000
     11203       106  DOPC      H14R           11.8053292928        5.7612726069       -1.3583187880  MEMB      78              0.0000000000
     11204       106  DOPC      H14S           10.4679366969        6.8546532324       -1.8073691484  MEMB      78              0.0000000000
     11205       106  DOPC      C215           12.3020761516        7.8680206832       -1.4366349166  MEMB      78              0.0000000000
     11206       106  DOPC      H15R           12.2867926985        8.6634721178       -2.2088277461  MEMB      78              0.0000000000
     11207       106  DOPC      H15S           13.3742385750        7.6126292852       -1.2883992645  MEMB      78              0.0000000000
     11208       106  DOPC      C216           11.6586011663        8.4549634541       -0.1527869166  MEMB      78              0.0000000000
     11209       106  DOPC      H16R           10.9924647618        9.3007635704       -0.4179267879  MEMB      78              0.0000000000
     11210       106  DOPC      H16S           12.4848672329        8.8648223934        0.4751850296  MEMB      78              0.0000000000
     11211       106  DOPC      C217           10.8096711883        7.5096930140        0.7260122455  MEMB      78              0.0000000000
     11212       106  DOPC      H17R           11.1789740202        7.6517171384        1.7655756092  MEMB      78              0.0000000000
     11213       106  DOPC      H17S           10.9635202066        6.4464015396        0.4419722962  MEMB      78              0.0000000000
     11214       106  DOPC      C218            9.3073289993        7.7090754815        0.8222518772  MEMB      78              0.0000000000
     11215       106  DOPC      H18R            8.9303550089        7.3994556590        1.8244271756  MEMB      78              0.0000000000
     11216       106  DOPC      H18S            8.8273919422        7.0771009144        0.0646795696  MEMB      78              0.0000000000
     11217       106  DOPC      H18T            9.0159038404        8.7436486672        0.5853929173  MEMB      78              0.0000000000
     11218       106  DOPC      C33            13.5203657156        4.7302773607      -13.1246736164  MEMB      78              0.0000000000
     11219       106  DOPC      H3X            12.6835173788        4.6571204756      -12.3856848467  MEMB      78              0.0000000000
     11220       106  DOPC      H3Y            14.1413394890        5.6115806371      -12.8454633379  MEMB      78              0.0000000000
     11221       106  DOPC      C34            14.3676150078        3.4796784253      -12.9352177723  MEMB      78              0.0000000000
     11222       106  DOPC      H4X            15.1928573712        3.4354006007      -13.6776714155  MEMB      78              0.0000000000
     11223       106  DOPC      H4Y            13.7178534143        2.5898125383      -13.1128472596  MEMB      78              0.0000000000
     11224       106  DOPC      C35            14.9104111790        3.4526702090      -11.4945530834  MEMB      78              0.0000000000
     11225       106  DOPC      H5X            15.1158635073        2.4127393646      -11.2891856126  MEMB      78              0.0000000000
     11226       106  DOPC      H5Y            14.0918465665        3.6926850135      -10.7895036169  MEMB      78              0.0000000000
     11227       106  DOPC      C36            16.1778323043        4.3160966718      -11.2911118805  MEMB      78              0.0000000000
     11228       106  DOPC      H6X            16.8827590070        4.0640247601      -12.1180461592  MEMB      78              0.0000000000
     11229       106  DOPC      H6Y            15.8851081330        5.3792665573      -11.4313406052  MEMB      78              0.0000000000
     11230       106  DOPC      C37            16.9696628808        4.2191965093       -9.9541300175  MEMB      78              0.0000000000
     11231       106  DOPC      H7X            17.4912265922        3.2457753468       -9.8780068751  MEMB      78              0.0000000000
     11232       106  DOPC      H7Y            17.7637226204        5.0007692980      -10.0026381585  MEMB      78              0.0000000000
     11233       106  DOPC      C38            16.1791709726        4.4403876934       -8.6474939158  MEMB      78              0.0000000000
     11234       106  DOPC      H8X            15.3845405041        3.6623745122       -8.5796863467  MEMB      78              0.0000000000
     11235       106  DOPC      H8Y            15.7063230330        5.4318696546       -8.7186732158  MEMB      78              0.0000000000
     11236       106  DOPC      C39            17.0357365384        4.3970843182       -7.4080620194  MEMB      78              0.0000000000
     11237       106  DOPC      H9X            17.9074553348        3.7608478956       -7.5456719633  MEMB      78              0.0000000000
     11238       106  DOPC      C310           17.0130745271        5.1591928481       -6.2950256581  MEMB      78              0.0000000000
     11239       106  DOPC      H10X           17.7222761982        4.9299626003       -5.4902341052  MEMB      78              0.0000000000
     11240       106  DOPC      C311           16.1174054125        6.3099978799       -5.9279207179  MEMB      78              0.0000000000
     11241       106  DOPC      H11X           15.9022633118        6.3149449145       -4.8375379689  MEMB      78              0.0000000000
     11242       106  DOPC      H11Y           15.1372253437        6.2589179007       -6.4156182045  MEMB      78              0.0000000000
     11243       106  DOPC      C312           16.7995626366        7.6194899671       -6.3575553338  MEMB      78              0.0000000000
     11244       106  DOPC      H12X           16.0731539900        8.4570189935       -6.2551977372  MEMB      78              0.0000000000
     11245       106  DOPC      H12Y           17.0645678422        7.5556783032       -7.4383968410  MEMB      78              0.0000000000
     11246       106  DOPC      C313           18.0544185221        7.9483182352       -5.5345330554  MEMB      78              0.0000000000
     11247       106  DOPC      H13X           18.7350270046        7.0696836536       -5.4845038549  MEMB      78              0.0000000000
     11248       106  DOPC      H13Y           18.6101216363        8.7687271258       -6.0427050686  MEMB      78              0.0000000000
     11249       106  DOPC      C314           17.6811527340        8.4065629829       -4.1211989081  MEMB      78              0.0000000000
     11250       106  DOPC      H14X           17.0084562834        9.2901248022       -4.2131747420  MEMB      78              0.0000000000
     11251       106  DOPC      H14Y           17.1214419536        7.6019773814       -3.5969296887  MEMB      78              0.0000000000
     11252       106  DOPC      C315           18.8831975417        8.8093871961       -3.2633508355  MEMB      78              0.0000000000
     11253       106  DOPC      H15X           19.5157620323        9.5158577537       -3.8452404699  MEMB      78              0.0000000000
     11254       106  DOPC      H15Y           19.5011210719        7.9138465586       -3.0302567443  MEMB      78              0.0000000000
     11255       106  DOPC      C316           18.4438012357        9.5037367584       -1.9675952791  MEMB      78              0.0000000000
     11256       106  DOPC      H16X           19.3418490461        9.9264853150       -1.4634349974  MEMB      78              0.0000000000
     11257       106  DOPC      H16Y           17.7714045136       10.3538004635       -2.2220825625  MEMB      78              0.0000000000
     11258       106  DOPC      C317           17.7184415725        8.5660283858       -0.9934801093  MEMB      78              0.0000000000
     11259       106  DOPC      H17X           16.7911405795        8.1678951753       -1.4588498513  MEMB      78              0.0000000000
     11260       106  DOPC      H17Y           18.3749725181        7.6876361833       -0.8027405431  MEMB      78              0.0000000000
     11261       106  DOPC      C318           17.3628446676        9.2415085114        0.3349609803  MEMB      78              0.0000000000
     11262       106  DOPC      H18X           16.5333619862        9.9649249841        0.1891007241  MEMB      78              0.0000000000
     11263       106  DOPC      H18Y           17.0553445162        8.4870112111        1.0901012957  MEMB      78              0.0000000000
     11264       106  DOPC      H18Z           18.2400163221        9.7965554402        0.7342080460  MEMB      78              0.0000000000
     11265       107  DOPC      N              18.2248107980      -10.1725563791      -19.5575449735  MEMB      79              0.0000000000
     11266       107  DOPC      C12            18.6725674809       -9.1644527605      -18.5028975100  MEMB      79              0.0000000000
     11267       107  DOPC      H12A           19.5014151088       -9.5988394895      -17.9357601447  MEMB      79              0.0000000000
     11268       107  DOPC      H12B           17.8597425446       -8.9740366901      -17.8236001244  MEMB      79              0.0000000000
     11269       107  DOPC      C13            17.1399236529       -9.5729115140      -20.4015007218  MEMB      79              0.0000000000
     11270       107  DOPC      H13A           17.4432692814       -8.5689112440      -20.7008132948  MEMB      79              0.0000000000
     11271       107  DOPC      H13B           16.9582744908      -10.1459358150      -21.3023936581  MEMB      79              0.0000000000
     11272       107  DOPC      H13C           16.2291729055       -9.4241416074      -19.8404878006  MEMB      79              0.0000000000
     11273       107  DOPC      C14            17.7680855725      -11.4391683676      -18.9183367629  MEMB      79              0.0000000000
     11274       107  DOPC      H14A           18.5786449282      -11.8506042080      -18.3235442349  MEMB      79              0.0000000000
     11275       107  DOPC      H14B           16.9081679211      -11.2919496244      -18.2856123919  MEMB      79              0.0000000000
     11276       107  DOPC      H14C           17.5266041992      -12.1629291582      -19.6845857591  MEMB      79              0.0000000000
     11277       107  DOPC      C15            19.4540995635      -10.4842967655      -20.3497617718  MEMB      79              0.0000000000
     11278       107  DOPC      H15A           20.2224621283      -10.9020011497      -19.6996509769  MEMB      79              0.0000000000
     11279       107  DOPC      H15B           19.8969747631       -9.5445727968      -20.6895581422  MEMB      79              0.0000000000
     11280       107  DOPC      H15C           19.2900148823      -11.1199951605      -21.1941375987  MEMB      79              0.0000000000
     11281       107  DOPC      C11            19.2232684115       -7.8043756140      -19.0176552913  MEMB      79              0.0000000000
     11282       107  DOPC      H11A           18.5325302701       -7.3706931396      -19.7685822330  MEMB      79              0.0000000000
     11283       107  DOPC      H11B           19.2560502247       -7.0734467149      -18.1751623163  MEMB      79              0.0000000000
     11284       107  DOPC      P              21.7697705276       -8.3289166453      -18.8194639962  MEMB      79              0.0000000000
     11285       107  DOPC      O13            22.9345563500       -8.2316282172      -19.7154457841  MEMB      79              0.0000000000
     11286       107  DOPC      O14            21.5307617989       -9.6475688992      -18.1857731184  MEMB      79              0.0000000000
     11287       107  DOPC      O12            20.4852726056       -7.9371533884      -19.6462603631  MEMB      79              0.0000000000
     11288       107  DOPC      O11            21.8217596916       -7.1778688641      -17.7303728884  MEMB      79              0.0000000000
     11289       107  DOPC      C1             22.7527936923       -7.2464460747      -16.6468863509  MEMB      79              0.0000000000
     11290       107  DOPC      HA             23.3799468259       -6.3223336046      -16.6456116868  MEMB      79              0.0000000000
     11291       107  DOPC      HB             23.4655289534       -8.1016064810      -16.7370419620  MEMB      79              0.0000000000
     11292       107  DOPC      C2             22.0604225505       -7.3625898009      -15.2516941251  MEMB      79              0.0000000000
     11293       107  DOPC      HS             22.8986390403       -7.3063326348      -14.5145470673  MEMB      79              0.0000000000
     11294       107  DOPC      O21            21.3037542661       -8.5738211324      -15.0811524651  MEMB      79              0.0000000000
     11295       107  DOPC      C21            21.9939441335       -9.5867498773      -14.6368164881  MEMB      79              0.0000000000
     11296       107  DOPC      O22            23.2112854069       -9.6744491795      -14.6276930984  MEMB      79              0.0000000000
     11297       107  DOPC      C22            21.0357290292      -10.6151427017      -14.0161584695  MEMB      79              0.0000000000
     11298       107  DOPC      H2R            21.1069333035      -11.5511568921      -14.6047107881  MEMB      79              0.0000000000
     11299       107  DOPC      H2S            19.9945842123      -10.2337848773      -14.0518070234  MEMB      79              0.0000000000
     11300       107  DOPC      C3             21.0947082013       -6.2013810220      -14.9018620076  MEMB      79              0.0000000000
     11301       107  DOPC      HX             20.2080557035       -6.2743832279      -15.5721551988  MEMB      79              0.0000000000
     11302       107  DOPC      HY             21.5882253715       -5.2298072728      -15.1254973703  MEMB      79              0.0000000000
     11303       107  DOPC      O31            20.6539522289       -6.2952551919      -13.5170402421  MEMB      79              0.0000000000
     11304       107  DOPC      C31            21.5941502011       -5.9403123634      -12.6474627780  MEMB      79              0.0000000000
     11305       107  DOPC      O32            22.6967705283       -5.5217323425      -12.9581407998  MEMB      79              0.0000000000
     11306       107  DOPC      C32            21.1981964081       -6.1279349319      -11.1682262536  MEMB      79              0.0000000000
     11307       107  DOPC      H2X            21.8491689800       -6.9358184276      -10.7769770290  MEMB      79              0.0000000000
     11308       107  DOPC      H2Y            21.5207101046       -5.2053640348      -10.6443472625  MEMB      79              0.0000000000
     11309       107  DOPC      C23            21.4602703610      -10.8637461329      -12.5467457095  MEMB      79              0.0000000000
     11310       107  DOPC      H3R            21.4025726047       -9.9154162971      -11.9654527573  MEMB      79              0.0000000000
     11311       107  DOPC      H3S            22.5289881811      -11.1712525459      -12.5645075127  MEMB      79              0.0000000000
     11312       107  DOPC      C24            20.6772554551      -11.9397596792      -11.7796537292  MEMB      79              0.0000000000
     11313       107  DOPC      H4R            20.3953502794      -12.7679631881      -12.4692536794  MEMB      79              0.0000000000
     11314       107  DOPC      H4S            19.7359794947      -11.4885839516      -11.3926767340  MEMB      79              0.0000000000
     11315       107  DOPC      C25            21.4794979155      -12.5497411013      -10.6050810449  MEMB      79              0.0000000000
     11316       107  DOPC      H5R            22.0724608093      -13.3983983464      -11.0168258422  MEMB      79              0.0000000000
     11317       107  DOPC      H5S            20.7711174359      -12.9779703576       -9.8634698356  MEMB      79              0.0000000000
     11318       107  DOPC      C26            22.4650217965      -11.6055286058       -9.8760160135  MEMB      79              0.0000000000
     11319       107  DOPC      H6R            23.1865511456      -11.1834261041      -10.6060193395  MEMB      79              0.0000000000
     11320       107  DOPC      H6S            23.0737501201      -12.2132632567       -9.1691924314  MEMB      79              0.0000000000
     11321       107  DOPC      C27            21.7895924309      -10.4696930231       -9.0872755927  MEMB      79              0.0000000000
     11322       107  DOPC      H7R            21.6504959794      -10.8002441167       -8.0348072745  MEMB      79              0.0000000000
     11323       107  DOPC      H7S            20.7766022992      -10.2996586092       -9.5126188206  MEMB      79              0.0000000000
     11324       107  DOPC      C28            22.5581375917       -9.1361456322       -9.0685651373  MEMB      79              0.0000000000
     11325       107  DOPC      H8R            21.8951716177       -8.3407866781       -8.6631060766  MEMB      79              0.0000000000
     11326       107  DOPC      H8S            22.8158812596       -8.8390031547      -10.1107101326  MEMB      79              0.0000000000
     11327       107  DOPC      C29            23.7926056566       -9.2449683353       -8.2292685287  MEMB      79              0.0000000000
     11328       107  DOPC      H9R            24.6563933120       -9.6512711824       -8.7796762105  MEMB      79              0.0000000000
     11329       107  DOPC      C210           23.9813334182       -8.8076471518       -6.9645081659  MEMB      79              0.0000000000
     11330       107  DOPC      H10R           24.9922963944       -8.9056624471       -6.5412163052  MEMB      79              0.0000000000
     11331       107  DOPC      C211           23.0505308117       -8.0930864905       -6.0193909775  MEMB      79              0.0000000000
     11332       107  DOPC      H11R           22.1134202821       -7.7583117104       -6.5183934812  MEMB      79              0.0000000000
     11333       107  DOPC      H11S           23.5643124175       -7.1700508302       -5.6628169667  MEMB      79              0.0000000000
     11334       107  DOPC      C212           22.6971848970       -8.9762858648       -4.7971803351  MEMB      79              0.0000000000
     11335       107  DOPC      H12R           23.3777844057       -9.8475798694       -4.7073981121  MEMB      79              0.0000000000
     11336       107  DOPC      H12S           21.6748025024       -9.3814565075       -4.9760518151  MEMB      79              0.0000000000
     11337       107  DOPC      C213           22.6996124897       -8.2563654865       -3.4318809472  MEMB      79              0.0000000000
     11338       107  DOPC      H13R           23.7138762037       -7.8848094467       -3.1720531354  MEMB      79              0.0000000000
     11339       107  DOPC      H13S           22.4082109618       -8.9955661022       -2.6507662539  MEMB      79              0.0000000000
     11340       107  DOPC      C214           21.6856852762       -7.1185281502       -3.4475441727  MEMB      79              0.0000000000
     11341       107  DOPC      H14R           20.7561538691       -7.5399131997       -3.9014991793  MEMB      79              0.0000000000
     11342       107  DOPC      H14S           22.0448665461       -6.3062032455       -4.1189403571  MEMB      79              0.0000000000
     11343       107  DOPC      C215           21.2794805408       -6.4910200378       -2.1065710145  MEMB      79              0.0000000000
     11344       107  DOPC      H15R           22.0216552125       -5.6994127497       -1.8576305273  MEMB      79              0.0000000000
     11345       107  DOPC      H15S           21.2548423594       -7.2129597628       -1.2660708068  MEMB      79              0.0000000000
     11346       107  DOPC      C216           19.8894524566       -5.8875871877       -2.3345673880  MEMB      79              0.0000000000
     11347       107  DOPC      H16R           19.0940114421       -6.6400365627       -2.5006303627  MEMB      79              0.0000000000
     11348       107  DOPC      H16S           19.9660636945       -5.4681612436       -3.3274529288  MEMB      79              0.0000000000
     11349       107  DOPC      C217           19.3965802292       -4.8313886230       -1.3518106962  MEMB      79              0.0000000000
     11350       107  DOPC      H17R           18.8637592291       -5.3936455851       -0.5672211933  MEMB      79              0.0000000000
     11351       107  DOPC      H17S           18.6486142329       -4.1913751214       -1.8732907468  MEMB      79              0.0000000000
     11352       107  DOPC      C218           20.4578210807       -3.9502905164       -0.6968370899  MEMB      79              0.0000000000
     11353       107  DOPC      H18R           21.1078799976       -4.5741314805       -0.0461600888  MEMB      79              0.0000000000
     11354       107  DOPC      H18S           19.9840522835       -3.1656880764       -0.0686044192  MEMB      79              0.0000000000
     11355       107  DOPC      H18T           21.0932340985       -3.4686283483       -1.4685959962  MEMB      79              0.0000000000
     11356       107  DOPC      C33            19.7102122018       -6.4327407047      -10.8220569598  MEMB      79              0.0000000000
     11357       107  DOPC      H3X            19.0183616534       -5.9977414899      -11.5770744848  MEMB      79              0.0000000000
     11358       107  DOPC      H3Y            19.4808572978       -5.9413557611       -9.8476635249  MEMB      79              0.0000000000
     11359       107  DOPC      C34            19.5162845171       -7.9507048125      -10.6741876589  MEMB      79              0.0000000000
     11360       107  DOPC      H4X            20.4049050943       -8.3353391163      -10.1431895496  MEMB      79              0.0000000000
     11361       107  DOPC      H4Y            19.5252987514       -8.3872219308      -11.6989019756  MEMB      79              0.0000000000
     11362       107  DOPC      C35            18.3034216755       -8.4994629524       -9.8898738262  MEMB      79              0.0000000000
     11363       107  DOPC      H5X            18.3124173239       -9.5988187512      -10.0767976912  MEMB      79              0.0000000000
     11364       107  DOPC      H5Y            17.3559701891       -8.1109035674      -10.3124409986  MEMB      79              0.0000000000
     11365       107  DOPC      C36            18.3700270020       -8.3064338892       -8.3590828451  MEMB      79              0.0000000000
     11366       107  DOPC      H6X            19.4106960526       -8.4844824531       -8.0067041916  MEMB      79              0.0000000000
     11367       107  DOPC      H6Y            18.1132111466       -7.2474017045       -8.1277944203  MEMB      79              0.0000000000
     11368       107  DOPC      C37            17.4331817308       -9.2294995698       -7.5417001547  MEMB      79              0.0000000000
     11369       107  DOPC      H7X            17.4350021270       -8.8854584614       -6.4822560565  MEMB      79              0.0000000000
     11370       107  DOPC      H7Y            16.3940689018       -9.1013969320       -7.9154272619  MEMB      79              0.0000000000
     11371       107  DOPC      C38            17.7606063055      -10.7458953857       -7.5592530644  MEMB      79              0.0000000000
     11372       107  DOPC      H8X            17.8031157986      -11.0937157859       -8.6146912702  MEMB      79              0.0000000000
     11373       107  DOPC      H8Y            16.8920545648      -11.2759846560       -7.1077013376  MEMB      79              0.0000000000
     11374       107  DOPC      C39            19.0273791139      -11.1452782616       -6.8391291838  MEMB      79              0.0000000000
     11375       107  DOPC      H9X            19.8518184840      -11.4178138701       -7.5102403916  MEMB      79              0.0000000000
     11376       107  DOPC      C310           19.2090361576      -11.3291143145       -5.5148288984  MEMB      79              0.0000000000
     11377       107  DOPC      H10X           20.2119851937      -11.6109988178       -5.1559363164  MEMB      79              0.0000000000
     11378       107  DOPC      C311           18.1706639922      -11.1768580797       -4.4330530240  MEMB      79              0.0000000000
     11379       107  DOPC      H11X           18.1536029910      -12.0873155503       -3.7914558422  MEMB      79              0.0000000000
     11380       107  DOPC      H11Y           17.1544171791      -11.1134310892       -4.8861088110  MEMB      79              0.0000000000
     11381       107  DOPC      C312           18.3005774621       -9.9361563563       -3.5212182747  MEMB      79              0.0000000000
     11382       107  DOPC      H12X           17.3178069901       -9.8999272517       -3.0002934207  MEMB      79              0.0000000000
     11383       107  DOPC      H12Y           18.4009719362       -8.9966254410       -4.0998026401  MEMB      79              0.0000000000
     11384       107  DOPC      C313           19.3517531580       -9.9915406883       -2.4002807307  MEMB      79              0.0000000000
     11385       107  DOPC      H13X           19.4103435318      -11.0335671137       -2.0617683596  MEMB      79              0.0000000000
     11386       107  DOPC      H13Y           20.3642213486       -9.7409990072       -2.7660423310  MEMB      79              0.0000000000
     11387       107  DOPC      C314           18.9322630954       -9.1320760678       -1.1876445576  MEMB      79              0.0000000000
     11388       107  DOPC      H14X           19.3025341578       -8.1103138671       -1.3122700286  MEMB      79              0.0000000000
     11389       107  DOPC      H14Y           17.8242403691       -9.0677346047       -1.1372031775  MEMB      79              0.0000000000
     11390       107  DOPC      C315           19.4333874564       -9.6166631133        0.1765951356  MEMB      79              0.0000000000
     11391       107  DOPC      H15X           20.5435132905       -9.5655819855        0.1875501682  MEMB      79              0.0000000000
     11392       107  DOPC      H15Y           19.1541136879      -10.6807474903        0.2982235066  MEMB      79              0.0000000000
     11393       107  DOPC      C316           18.8691666521       -8.8090894373        1.3664751928  MEMB      79              0.0000000000
     11394       107  DOPC      H16X           17.8291748976       -9.1402821642        1.5854790619  MEMB      79              0.0000000000
     11395       107  DOPC      H16Y           19.4953305274       -9.0388391279        2.2565607849  MEMB      79              0.0000000000
     11396       107  DOPC      C317           18.8404865892       -7.2854913812        1.1671596806  MEMB      79              0.0000000000
     11397       107  DOPC      H17X           19.7644588744       -6.9746386926        0.6286230128  MEMB      79              0.0000000000
     11398       107  DOPC      H17Y           17.9704724624       -7.0227090820        0.5195336972  MEMB      79              0.0000000000
     11399       107  DOPC      C318           18.7504169847       -6.4861074414        2.4691619662  MEMB      79              0.0000000000
     11400       107  DOPC      H18X           17.7848446325       -6.6726779706        2.9850420320  MEMB      79              0.0000000000
     11401       107  DOPC      H18Y           19.5788456131       -6.7702678903        3.1531481878  MEMB      79              0.0000000000
     11402       107  DOPC      H18Z           18.8335392545       -5.3957062137        2.2646346063  MEMB      79              0.0000000000
     11403       108  DOPC      N             -19.7139812689       -2.1599262339      -17.6463396307  MEMB      80              0.0000000000
     11404       108  DOPC      C12           -21.2243038313       -2.3660321362      -17.6926275770  MEMB      80              0.0000000000
     11405       108  DOPC      H12A          -21.7331012553       -1.6746218604      -17.0333664544  MEMB      80              0.0000000000
     11406       108  DOPC      H12B          -21.4629522247       -3.3713574844      -17.3402691107  MEMB      80              0.0000000000
     11407       108  DOPC      C13           -19.3305606177       -1.0632555269      -18.5932185209  MEMB      80              0.0000000000
     11408       108  DOPC      H13A          -19.8549920825       -0.1420412448      -18.3810316362  MEMB      80              0.0000000000
     11409       108  DOPC      H13B          -18.2639569834       -0.8955095040      -18.6202961048  MEMB      80              0.0000000000
     11410       108  DOPC      H13C          -19.6272757488       -1.4114333123      -19.5852839907  MEMB      80              0.0000000000
     11411       108  DOPC      C14           -19.0706923288       -3.4402908983      -18.1452291249  MEMB      80              0.0000000000
     11412       108  DOPC      H14A          -18.0028692592       -3.4052193288      -18.2929640749  MEMB      80              0.0000000000
     11413       108  DOPC      H14B          -19.2927859186       -4.2837421718      -17.5035004397  MEMB      80              0.0000000000
     11414       108  DOPC      H14C          -19.5014858974       -3.7203453275      -19.1145127812  MEMB      80              0.0000000000
     11415       108  DOPC      C15           -19.2564861175       -1.8634424989      -16.2476122273  MEMB      80              0.0000000000
     11416       108  DOPC      H15A          -18.1935992067       -1.6703952246      -16.2049082468  MEMB      80              0.0000000000
     11417       108  DOPC      H15B          -19.4400611670       -2.7065230200      -15.5867215716  MEMB      80              0.0000000000
     11418       108  DOPC      H15C          -19.7749934008       -0.9997813059      -15.8502015101  MEMB      80              0.0000000000
     11419       108  DOPC      C11           -21.8593479919       -2.2598324708      -19.0951347977  MEMB      80              0.0000000000
     11420       108  DOPC      H11A          -22.9672271070       -2.3760835634      -19.0060049254  MEMB      80              0.0000000000
     11421       108  DOPC      H11B          -21.7092535996       -1.2530792709      -19.5368757408  MEMB      80              0.0000000000
     11422       108  DOPC      P             -21.9488832224       -4.6527309006      -20.1576351573  MEMB      80              0.0000000000
     11423       108  DOPC      O13           -20.9135223318       -5.6805006304      -19.9982355926  MEMB      80              0.0000000000
     11424       108  DOPC      O14           -22.7428492769       -4.5998554962      -21.4063002512  MEMB      80              0.0000000000
     11425       108  DOPC      O12           -21.2732873107       -3.2261131678      -19.9588620972  MEMB      80              0.0000000000
     11426       108  DOPC      O11           -22.8638169175       -4.8057258750      -18.8587070615  MEMB      80              0.0000000000
     11427       108  DOPC      C1            -23.6101046440       -6.0240465319      -18.6748781275  MEMB      80              0.0000000000
     11428       108  DOPC      HA            -22.9703057408       -6.9231233136      -18.8296395352  MEMB      80              0.0000000000
     11429       108  DOPC      HB            -24.4307385300       -6.0469453766      -19.4333597481  MEMB      80              0.0000000000
     11430       108  DOPC      C2            -24.3333674502       -6.1813490104      -17.2740333189  MEMB      80              0.0000000000
     11431       108  DOPC      HS            -25.3516479655       -6.5786420756      -17.4773827655  MEMB      80              0.0000000000
     11432       108  DOPC      O21           -24.4638999941       -4.9644431253      -16.5256033609  MEMB      80              0.0000000000
     11433       108  DOPC      C21           -25.0328229603       -3.9423497536      -17.1577583941  MEMB      80              0.0000000000
     11434       108  DOPC      O22           -25.5496338818       -3.9658013447      -18.2566796771  MEMB      80              0.0000000000
     11435       108  DOPC      C22           -24.8967459939       -2.7375377870      -16.2318226286  MEMB      80              0.0000000000
     11436       108  DOPC      H2R           -25.1473925737       -1.8543942872      -16.8561584756  MEMB      80              0.0000000000
     11437       108  DOPC      H2S           -23.8491828954       -2.6390000431      -15.8957704026  MEMB      80              0.0000000000
     11438       108  DOPC      C3            -23.6350391728       -7.2235900474      -16.3271393760  MEMB      80              0.0000000000
     11439       108  DOPC      HX            -23.6330648038       -8.2181313320      -16.8166252473  MEMB      80              0.0000000000
     11440       108  DOPC      HY            -24.2324094787       -7.2896788854      -15.3878379147  MEMB      80              0.0000000000
     11441       108  DOPC      O31           -22.2960870635       -6.8367611591      -16.0116373544  MEMB      80              0.0000000000
     11442       108  DOPC      C31           -21.5420004891       -7.6639683771      -15.2991603163  MEMB      80              0.0000000000
     11443       108  DOPC      O32           -21.8506672744       -8.7893295481      -14.9555990520  MEMB      80              0.0000000000
     11444       108  DOPC      C32           -20.1933623634       -6.9707817794      -15.0604489247  MEMB      80              0.0000000000
     11445       108  DOPC      H2X           -19.8383505498       -7.2230108008      -14.0441722135  MEMB      80              0.0000000000
     11446       108  DOPC      H2Y           -19.4833710597       -7.4109827748      -15.7914926342  MEMB      80              0.0000000000
     11447       108  DOPC      C23           -25.8802531776       -2.8308128323      -15.0366167653  MEMB      80              0.0000000000
     11448       108  DOPC      H3R           -26.8222037685       -3.3278179695      -15.3685034900  MEMB      80              0.0000000000
     11449       108  DOPC      H3S           -26.1626441700       -1.7932641199      -14.7627249877  MEMB      80              0.0000000000
     11450       108  DOPC      C24           -25.3517159880       -3.5360424725      -13.7758117110  MEMB      80              0.0000000000
     11451       108  DOPC      H4R           -24.4821188536       -2.9682142595      -13.3819394657  MEMB      80              0.0000000000
     11452       108  DOPC      H4S           -25.0062863014       -4.5596802726      -14.0424127932  MEMB      80              0.0000000000
     11453       108  DOPC      C25           -26.4501098138       -3.6390247010      -12.6979399990  MEMB      80              0.0000000000
     11454       108  DOPC      H5R           -27.3306386941       -4.1380926175      -13.1676509785  MEMB      80              0.0000000000
     11455       108  DOPC      H5S           -26.7852285863       -2.6223297140      -12.4048512186  MEMB      80              0.0000000000
     11456       108  DOPC      C26           -26.0734848374       -4.4331694983      -11.4359087781  MEMB      80              0.0000000000
     11457       108  DOPC      H6R           -25.8244535797       -5.4715153138      -11.7490737962  MEMB      80              0.0000000000
     11458       108  DOPC      H6S           -26.9632830024       -4.4970884647      -10.7677340641  MEMB      80              0.0000000000
     11459       108  DOPC      C27           -24.8949880397       -3.8811108179      -10.6121352783  MEMB      80              0.0000000000
     11460       108  DOPC      H7R           -25.1928200780       -2.9425284437      -10.0948951776  MEMB      80              0.0000000000
     11461       108  DOPC      H7S           -24.0616071669       -3.6388229565      -11.3043566604  MEMB      80              0.0000000000
     11462       108  DOPC      C28           -24.4020854683       -4.9242882483       -9.5808783041  MEMB      80              0.0000000000
     11463       108  DOPC      H8R           -24.1784113708       -5.8562261359      -10.1474988258  MEMB      80              0.0000000000
     11464       108  DOPC      H8S           -25.2494516312       -5.1732246366       -8.9047039567  MEMB      80              0.0000000000
     11465       108  DOPC      C29           -23.1638037768       -4.5345198668       -8.8075486967  MEMB      80              0.0000000000
     11466       108  DOPC      H9R           -22.2539090504       -4.4383980580       -9.4182325962  MEMB      80              0.0000000000
     11467       108  DOPC      C210          -23.0640742741       -4.3065172301       -7.4841508855  MEMB      80              0.0000000000
     11468       108  DOPC      H10R          -22.0772659625       -4.0523061272       -7.0653911500  MEMB      80              0.0000000000
     11469       108  DOPC      C211          -24.1852255659       -4.3893779472       -6.4800247729  MEMB      80              0.0000000000
     11470       108  DOPC      H11R          -25.1534097255       -4.1198480750       -6.9606216199  MEMB      80              0.0000000000
     11471       108  DOPC      H11S          -24.0278427197       -3.6504118962       -5.6626703672  MEMB      80              0.0000000000
     11472       108  DOPC      C212          -24.3523315662       -5.7913743881       -5.8629129636  MEMB      80              0.0000000000
     11473       108  DOPC      H12R          -24.4355811286       -6.5531338185       -6.6718224792  MEMB      80              0.0000000000
     11474       108  DOPC      H12S          -25.3122247723       -5.8070025363       -5.2983648555  MEMB      80              0.0000000000
     11475       108  DOPC      C213          -23.2295639804       -6.2042517042       -4.9004026052  MEMB      80              0.0000000000
     11476       108  DOPC      H13R          -23.0766501585       -5.4126565241       -4.1323761205  MEMB      80              0.0000000000
     11477       108  DOPC      H13S          -22.2783754768       -6.3201394892       -5.4656504247  MEMB      80              0.0000000000
     11478       108  DOPC      C214          -23.5621277158       -7.5223833560       -4.1888068653  MEMB      80              0.0000000000
     11479       108  DOPC      H14R          -23.9238023249       -8.2743100085       -4.9258418399  MEMB      80              0.0000000000
     11480       108  DOPC      H14S          -24.3987435799       -7.3283356826       -3.4775706848  MEMB      80              0.0000000000
     11481       108  DOPC      C215          -22.3751955119       -8.1044880466       -3.4116175804  MEMB      80              0.0000000000
     11482       108  DOPC      H15R          -22.7980147039       -8.7404041940       -2.6006311156  MEMB      80              0.0000000000
     11483       108  DOPC      H15S          -21.8014117646       -7.2788802457       -2.9443481582  MEMB      80              0.0000000000
     11484       108  DOPC      C216          -21.4532974858       -8.9788088035       -4.2748015659  MEMB      80              0.0000000000
     11485       108  DOPC      H16R          -21.0757745583       -8.3817259357       -5.1358146809  MEMB      80              0.0000000000
     11486       108  DOPC      H16S          -22.0722785673       -9.7912453946       -4.7131766491  MEMB      80              0.0000000000
     11487       108  DOPC      C217          -20.2296165025       -9.5603311672       -3.5308175067  MEMB      80              0.0000000000
     11488       108  DOPC      H17R          -19.3488059697       -8.9492377886       -3.8112563533  MEMB      80              0.0000000000
     11489       108  DOPC      H17S          -20.0053583291      -10.5792450308       -3.9082907263  MEMB      80              0.0000000000
     11490       108  DOPC      C218          -20.2936403975       -9.6028603456       -2.0010627266  MEMB      80              0.0000000000
     11491       108  DOPC      H18R          -19.4476844108      -10.1894942467       -1.5884580076  MEMB      80              0.0000000000
     11492       108  DOPC      H18S          -21.2384651389      -10.0476997070       -1.6304206922  MEMB      80              0.0000000000
     11493       108  DOPC      H18T          -20.2004326330       -8.5715598214       -1.6000078655  MEMB      80              0.0000000000
     11494       108  DOPC      C33           -20.2340712747       -5.4297450231      -15.2834766307  MEMB      80              0.0000000000
     11495       108  DOPC      H3X           -20.6661057331       -5.1987898788      -16.2849850883  MEMB      80              0.0000000000
     11496       108  DOPC      H3Y           -19.1912235085       -5.0513399524      -15.2931944484  MEMB      80              0.0000000000
     11497       108  DOPC      C34           -20.9968382544       -4.6550605010      -14.1957238619  MEMB      80              0.0000000000
     11498       108  DOPC      H4X           -22.0433745593       -5.0302641840      -14.1391661739  MEMB      80              0.0000000000
     11499       108  DOPC      H4Y           -21.0580789969       -3.5868974789      -14.4978888407  MEMB      80              0.0000000000
     11500       108  DOPC      C35           -20.3335969434       -4.7571763477      -12.8166677438  MEMB      80              0.0000000000
     11501       108  DOPC      H5X           -19.2481230328       -4.5313362430      -12.9173150231  MEMB      80              0.0000000000
     11502       108  DOPC      H5Y           -20.4235777665       -5.8060097026      -12.4527265513  MEMB      80              0.0000000000
     11503       108  DOPC      C36           -20.9642651659       -3.8336892724      -11.7611019194  MEMB      80              0.0000000000
     11504       108  DOPC      H6X           -22.0432461678       -4.0806116959      -11.6698969697  MEMB      80              0.0000000000
     11505       108  DOPC      H6Y           -20.4958898576       -4.0598817695      -10.7761807782  MEMB      80              0.0000000000
     11506       108  DOPC      C37           -20.7969090439       -2.3341615065      -12.0564429170  MEMB      80              0.0000000000
     11507       108  DOPC      H7X           -19.8455790577       -2.1941805671      -12.6199642993  MEMB      80              0.0000000000
     11508       108  DOPC      H7Y           -21.6245282395       -2.0017012563      -12.7205903209  MEMB      80              0.0000000000
     11509       108  DOPC      C38           -20.7149255632       -1.4266583526      -10.8044545891  MEMB      80              0.0000000000
     11510       108  DOPC      H8X           -20.5839198515       -0.3823967903      -11.1667169784  MEMB      80              0.0000000000
     11511       108  DOPC      H8Y           -19.7887389020       -1.6923550335      -10.2521171302  MEMB      80              0.0000000000
     11512       108  DOPC      C39           -21.8927123155       -1.4782847545       -9.8647423715  MEMB      80              0.0000000000
     11513       108  DOPC      H9X           -22.7980405361       -1.9557957963      -10.2691859348  MEMB      80              0.0000000000
     11514       108  DOPC      C310          -21.8979608881       -1.0492621754       -8.5854665603  MEMB      80              0.0000000000
     11515       108  DOPC      H10X          -22.8218148222       -1.1645172634       -7.9955475655  MEMB      80              0.0000000000
     11516       108  DOPC      C311          -20.7402116408       -0.4324607482       -7.8313459230  MEMB      80              0.0000000000
     11517       108  DOPC      H11X          -21.0373564677        0.5562451795       -7.4146412389  MEMB      80              0.0000000000
     11518       108  DOPC      H11Y          -19.8702569492       -0.2413175248       -8.5012326869  MEMB      80              0.0000000000
     11519       108  DOPC      C312          -20.2601904065       -1.3300387812       -6.6680212331  MEMB      80              0.0000000000
     11520       108  DOPC      H12X          -19.9444301703       -2.3113469964       -7.0869395005  MEMB      80              0.0000000000
     11521       108  DOPC      H12Y          -21.1022675021       -1.5246755042       -5.9676501775  MEMB      80              0.0000000000
     11522       108  DOPC      C313          -19.0790084476       -0.7213532288       -5.8856922016  MEMB      80              0.0000000000
     11523       108  DOPC      H13X          -18.3628426824       -0.2888621627       -6.6227862919  MEMB      80              0.0000000000
     11524       108  DOPC      H13Y          -19.4437270359        0.1081873718       -5.2418857584  MEMB      80              0.0000000000
     11525       108  DOPC      C314          -18.2861770954       -1.7263929973       -5.0298928633  MEMB      80              0.0000000000
     11526       108  DOPC      H14X          -17.8775454803       -2.5114809975       -5.7080622767  MEMB      80              0.0000000000
     11527       108  DOPC      H14Y          -17.4146503479       -1.2143178514       -4.5632659921  MEMB      80              0.0000000000
     11528       108  DOPC      C315          -19.0800394581       -2.4218731415       -3.9140681734  MEMB      80              0.0000000000
     11529       108  DOPC      H15X          -18.6248003789       -3.4319700619       -3.8119207231  MEMB      80              0.0000000000
     11530       108  DOPC      H15Y          -20.1445939580       -2.5794186797       -4.1810904290  MEMB      80              0.0000000000
     11531       108  DOPC      C316          -18.8976493367       -1.7783206777       -2.5305842882  MEMB      80              0.0000000000
     11532       108  DOPC      H16X          -17.7997760933       -1.7696724257       -2.3478684085  MEMB      80              0.0000000000
     11533       108  DOPC      H16Y          -19.2177402109       -0.7176203314       -2.4982791479  MEMB      80              0.0000000000
     11534       108  DOPC      C317          -19.5244613201       -2.6183838621       -1.4089379572  MEMB      80              0.0000000000
     11535       108  DOPC      H17X          -20.4088290818       -2.1258442622       -0.9567557164  MEMB      80              0.0000000000
     11536       108  DOPC      H17Y          -19.8953007973       -3.5667393261       -1.8573917133  MEMB      80              0.0000000000
     11537       108  DOPC      C318          -18.5237051630       -2.9511272966       -0.3040365960  MEMB      80              0.0000000000
     11538       108  DOPC      H18X          -17.4826140341       -2.9319872462       -0.6916621363  MEMB      80              0.0000000000
     11539       108  DOPC      H18Y          -18.6145054528       -2.2181277287        0.5260138670  MEMB      80              0.0000000000
     11540       108  DOPC      H18Z          -18.7020833981       -3.9713604865        0.0908096575  MEMB      80              0.0000000000
     11541       109  DOPC      N             -12.2585972797      -17.7525390534      -20.7135714270  MEMB      81              0.0000000000
     11542       109  DOPC      C12           -12.8870881016      -16.3644913691      -20.7335765190  MEMB      81              0.0000000000
     11543       109  DOPC      H12A          -13.9192647578      -16.4258887778      -21.0436232052  MEMB      81              0.0000000000
     11544       109  DOPC      H12B          -12.3752467248      -15.7482167692      -21.4656479439  MEMB      81              0.0000000000
     11545       109  DOPC      C13           -12.1563777071      -18.3496043099      -22.0736187379  MEMB      81              0.0000000000
     11546       109  DOPC      H13A          -13.0834416894      -18.2625721787      -22.6181917856  MEMB      81              0.0000000000
     11547       109  DOPC      H13B          -11.3523813236      -17.8995836720      -22.6372146961  MEMB      81              0.0000000000
     11548       109  DOPC      H13C          -11.9600201105      -19.4198398135      -21.9979967136  MEMB      81              0.0000000000
     11549       109  DOPC      C14           -13.0711920409      -18.6912545524      -19.8884024427  MEMB      81              0.0000000000
     11550       109  DOPC      H14A          -12.6593218190      -19.6922858663      -19.9279601499  MEMB      81              0.0000000000
     11551       109  DOPC      H14B          -13.0887971538      -18.3248052078      -18.8608035546  MEMB      81              0.0000000000
     11552       109  DOPC      H14C          -14.0979781284      -18.7351833839      -20.2313478837  MEMB      81              0.0000000000
     11553       109  DOPC      C15           -10.9187746360      -17.6710912579      -20.0602943644  MEMB      81              0.0000000000
     11554       109  DOPC      H15A          -10.4490797622      -18.6343532762      -19.9815448343  MEMB      81              0.0000000000
     11555       109  DOPC      H15B          -11.0234757747      -17.2320796191      -19.0601909929  MEMB      81              0.0000000000
     11556       109  DOPC      H15C          -10.2628817665      -17.0095326383      -20.6174164585  MEMB      81              0.0000000000
     11557       109  DOPC      C11           -12.9055482786      -15.5771921599      -19.4030207462  MEMB      81              0.0000000000
     11558       109  DOPC      H11A          -11.8444157976      -15.3864226057      -19.0983724899  MEMB      81              0.0000000000
     11559       109  DOPC      H11B          -13.3712165480      -14.5767239772      -19.5528635803  MEMB      81              0.0000000000
     11560       109  DOPC      P             -13.2331284250      -16.0242780064      -16.9277352374  MEMB      81              0.0000000000
     11561       109  DOPC      O13           -13.6205794329      -14.6509084241      -16.5230877111  MEMB      81              0.0000000000
     11562       109  DOPC      O14           -11.8292040275      -16.4654142191      -16.7807376954  MEMB      81              0.0000000000
     11563       109  DOPC      O12           -13.6666702843      -16.2857275853      -18.4235743456  MEMB      81              0.0000000000
     11564       109  DOPC      O11           -14.1932527105      -17.0562494633      -16.2227539074  MEMB      81              0.0000000000
     11565       109  DOPC      C1            -14.0275998883      -18.4702673349      -16.3162457257  MEMB      81              0.0000000000
     11566       109  DOPC      HA            -13.0828563567      -18.7759575697      -16.8221142258  MEMB      81              0.0000000000
     11567       109  DOPC      HB            -14.8608228055      -18.9116702900      -16.9050647339  MEMB      81              0.0000000000
     11568       109  DOPC      C2            -14.0008843252      -19.0780514820      -14.8936024225  MEMB      81              0.0000000000
     11569       109  DOPC      HS            -14.0514198982      -20.1863713928      -14.9844047808  MEMB      81              0.0000000000
     11570       109  DOPC      O21           -15.0748473316      -18.6286041328      -14.0557525880  MEMB      81              0.0000000000
     11571       109  DOPC      C21           -16.3119320531      -18.5303288034      -14.4946232838  MEMB      81              0.0000000000
     11572       109  DOPC      O22           -16.7611438540      -18.8993085651      -15.5597599340  MEMB      81              0.0000000000
     11573       109  DOPC      C22           -17.1673491815      -18.1283844195      -13.2950058440  MEMB      81              0.0000000000
     11574       109  DOPC      H2R           -18.2312838122      -18.1660959987      -13.5985384972  MEMB      81              0.0000000000
     11575       109  DOPC      H2S           -16.8975481477      -17.1073989068      -12.9629555212  MEMB      81              0.0000000000
     11576       109  DOPC      C3            -12.6332347713      -18.7164230917      -14.2160868588  MEMB      81              0.0000000000
     11577       109  DOPC      HX            -11.8467429571      -19.0458593275      -14.9320509407  MEMB      81              0.0000000000
     11578       109  DOPC      HY            -12.4071620040      -19.2384951270      -13.2736918469  MEMB      81              0.0000000000
     11579       109  DOPC      O31           -12.4895045501      -17.3083984940      -14.0147760221  MEMB      81              0.0000000000
     11580       109  DOPC      C31           -13.1967424653      -16.7482602196      -13.0556680016  MEMB      81              0.0000000000
     11581       109  DOPC      O32           -13.7806138356      -17.3216378652      -12.1509624253  MEMB      81              0.0000000000
     11582       109  DOPC      C32           -13.0821609624      -15.2439451995      -13.2131250391  MEMB      81              0.0000000000
     11583       109  DOPC      H2X           -12.1184845739      -15.0099526875      -13.7198283072  MEMB      81              0.0000000000
     11584       109  DOPC      H2Y           -13.8990183604      -14.9275355256      -13.8955767686  MEMB      81              0.0000000000
     11585       109  DOPC      C23           -16.9231559849      -19.1928117102      -12.2113031588  MEMB      81              0.0000000000
     11586       109  DOPC      H3R           -15.8507009269      -19.1466870881      -11.8994774516  MEMB      81              0.0000000000
     11587       109  DOPC      H3S           -17.1496112207      -20.1620659718      -12.7222141147  MEMB      81              0.0000000000
     11588       109  DOPC      C24           -17.7636043879      -19.1867749669      -10.9390335732  MEMB      81              0.0000000000
     11589       109  DOPC      H4R           -17.2010369234      -19.6760268374      -10.1126136717  MEMB      81              0.0000000000
     11590       109  DOPC      H4S           -18.6609870706      -19.8139188041      -11.1496365503  MEMB      81              0.0000000000
     11591       109  DOPC      C25           -18.2479374283      -17.8028457591      -10.5300289318  MEMB      81              0.0000000000
     11592       109  DOPC      H5R           -19.0439215922      -17.8603063936       -9.7601850973  MEMB      81              0.0000000000
     11593       109  DOPC      H5S           -18.6858391416      -17.4198019158      -11.4693156208  MEMB      81              0.0000000000
     11594       109  DOPC      C26           -17.2075380837      -16.7425731964      -10.1995412525  MEMB      81              0.0000000000
     11595       109  DOPC      H6R           -17.6655703401      -15.7505453501      -10.4245550104  MEMB      81              0.0000000000
     11596       109  DOPC      H6S           -16.3277491208      -16.8643914208      -10.8738925472  MEMB      81              0.0000000000
     11597       109  DOPC      C27           -16.7267285725      -16.6746674059       -8.7551886849  MEMB      81              0.0000000000
     11598       109  DOPC      H7R           -16.3247725181      -17.6724655294       -8.4681223734  MEMB      81              0.0000000000
     11599       109  DOPC      H7S           -17.5401665113      -16.4185226075       -8.0464516892  MEMB      81              0.0000000000
     11600       109  DOPC      C28           -15.5850021138      -15.6470954054       -8.7240694271  MEMB      81              0.0000000000
     11601       109  DOPC      H8R           -14.9422647574      -15.9721439251       -9.5717216482  MEMB      81              0.0000000000
     11602       109  DOPC      H8S           -14.9856072713      -15.7974697929       -7.8126365082  MEMB      81              0.0000000000
     11603       109  DOPC      C29           -15.9066806904      -14.1894350257       -8.9547317204  MEMB      81              0.0000000000
     11604       109  DOPC      H9R           -16.5286061434      -13.9968277535       -9.8402327148  MEMB      81              0.0000000000
     11605       109  DOPC      C210          -15.5238951392      -13.1293758720       -8.2173738811  MEMB      81              0.0000000000
     11606       109  DOPC      H10R          -15.8703764509      -12.1313954419       -8.5263611327  MEMB      81              0.0000000000
     11607       109  DOPC      C211          -14.6807297144      -13.1170801728       -6.9681064070  MEMB      81              0.0000000000
     11608       109  DOPC      H11R          -14.0377876438      -12.2081136602       -6.9506772058  MEMB      81              0.0000000000
     11609       109  DOPC      H11S          -13.9886841173      -13.9848467300       -6.9079901535  MEMB      81              0.0000000000
     11610       109  DOPC      C212          -15.5993942712      -13.0926098868       -5.7324569398  MEMB      81              0.0000000000
     11611       109  DOPC      H12R          -16.4237502461      -12.3648946736       -5.8741218609  MEMB      81              0.0000000000
     11612       109  DOPC      H12S          -15.0220019729      -12.7315706422       -4.8521263777  MEMB      81              0.0000000000
     11613       109  DOPC      C213          -16.2470495389      -14.4439685936       -5.4082883654  MEMB      81              0.0000000000
     11614       109  DOPC      H13R          -16.8538185730      -14.7898609468       -6.2742668822  MEMB      81              0.0000000000
     11615       109  DOPC      H13S          -16.9478225797      -14.2983863874       -4.5541947606  MEMB      81              0.0000000000
     11616       109  DOPC      C214          -15.2314819476      -15.5238024892       -5.0283993469  MEMB      81              0.0000000000
     11617       109  DOPC      H14R          -14.7141697499      -15.9398762985       -5.9126130356  MEMB      81              0.0000000000
     11618       109  DOPC      H14S          -15.7685815466      -16.3577830690       -4.5535385359  MEMB      81              0.0000000000
     11619       109  DOPC      C215          -14.1557701275      -15.0192636979       -4.0793598750  MEMB      81              0.0000000000
     11620       109  DOPC      H15R          -14.6422994492      -14.4763976191       -3.2409172332  MEMB      81              0.0000000000
     11621       109  DOPC      H15S          -13.5271406671      -14.2954826690       -4.6412898424  MEMB      81              0.0000000000
     11622       109  DOPC      C216          -13.2503942179      -16.1279342649       -3.5468027836  MEMB      81              0.0000000000
     11623       109  DOPC      H16R          -12.4748779751      -15.6691270300       -2.9130705867  MEMB      81              0.0000000000
     11624       109  DOPC      H16S          -12.6984809428      -16.5776540396       -4.4005563161  MEMB      81              0.0000000000
     11625       109  DOPC      C217          -13.9959783027      -17.2078058358       -2.7544596661  MEMB      81              0.0000000000
     11626       109  DOPC      H17R          -13.2464981440      -17.9304087480       -2.3634880323  MEMB      81              0.0000000000
     11627       109  DOPC      H17S          -14.6321275495      -17.7681972701       -3.4743586135  MEMB      81              0.0000000000
     11628       109  DOPC      C218          -14.8897024331      -16.7178892204       -1.6045270280  MEMB      81              0.0000000000
     11629       109  DOPC      H18R          -14.2883380221      -16.2921713731       -0.7805811254  MEMB      81              0.0000000000
     11630       109  DOPC      H18S          -15.4892758583      -17.5519649873       -1.1848630156  MEMB      81              0.0000000000
     11631       109  DOPC      H18T          -15.6019929533      -15.9417203837       -1.9487052190  MEMB      81              0.0000000000
     11632       109  DOPC      C33           -13.1724310277      -14.5069655901      -11.8630110161  MEMB      81              0.0000000000
     11633       109  DOPC      H3X           -13.9755096527      -14.8960735257      -11.2050742951  MEMB      81              0.0000000000
     11634       109  DOPC      H3Y           -13.4493725879      -13.4560326686      -12.1246161997  MEMB      81              0.0000000000
     11635       109  DOPC      C34           -11.8135907445      -14.4364521459      -11.1483934328  MEMB      81              0.0000000000
     11636       109  DOPC      H4X           -11.7745800769      -13.4732269560      -10.5904398756  MEMB      81              0.0000000000
     11637       109  DOPC      H4Y           -11.0323961213      -14.4022650167      -11.9441131146  MEMB      81              0.0000000000
     11638       109  DOPC      C35           -11.4496469856      -15.5729849830      -10.1713964659  MEMB      81              0.0000000000
     11639       109  DOPC      H5X           -10.3490145806      -15.5347218975      -10.0006387259  MEMB      81              0.0000000000
     11640       109  DOPC      H5Y           -11.6877238289      -16.5657621392      -10.6075569848  MEMB      81              0.0000000000
     11641       109  DOPC      C36           -12.1103490929      -15.4184631596       -8.8014527476  MEMB      81              0.0000000000
     11642       109  DOPC      H6X           -12.0972610241      -14.3530147879       -8.4818601777  MEMB      81              0.0000000000
     11643       109  DOPC      H6Y           -13.1561353702      -15.7158334250       -8.9137994051  MEMB      81              0.0000000000
     11644       109  DOPC      C37           -11.5317589642      -16.2838214009       -7.6813273734  MEMB      81              0.0000000000
     11645       109  DOPC      H7X           -10.4469473599      -16.0659754567       -7.5713204503  MEMB      81              0.0000000000
     11646       109  DOPC      H7Y           -12.0289584594      -15.9928298349       -6.7264202685  MEMB      81              0.0000000000
     11647       109  DOPC      C38           -11.7120712437      -17.8001126220       -7.8690628812  MEMB      81              0.0000000000
     11648       109  DOPC      H8X           -11.3821102434      -18.2289079018       -6.9117900586  MEMB      81              0.0000000000
     11649       109  DOPC      H8Y           -11.0029768177      -18.1659147438       -8.6399584397  MEMB      81              0.0000000000
     11650       109  DOPC      C39           -13.0804857292      -18.3365104171       -8.1696477789  MEMB      81              0.0000000000
     11651       109  DOPC      H9X           -13.3744631205      -18.2695013291       -9.2330061362  MEMB      81              0.0000000000
     11652       109  DOPC      C310          -13.9642541491      -18.8238698433       -7.2802827527  MEMB      81              0.0000000000
     11653       109  DOPC      H10X          -14.9414321473      -19.1666486483       -7.6584512238  MEMB      81              0.0000000000
     11654       109  DOPC      C311          -13.8159302864      -18.9441758747       -5.7865220767  MEMB      81              0.0000000000
     11655       109  DOPC      H11X          -14.7662066316      -19.3459447125       -5.3964494376  MEMB      81              0.0000000000
     11656       109  DOPC      H11Y          -13.7944548807      -17.9005400929       -5.4277358087  MEMB      81              0.0000000000
     11657       109  DOPC      C312          -12.6483255586      -19.6515808031       -5.0374336298  MEMB      81              0.0000000000
     11658       109  DOPC      H12X          -12.8752222761      -19.6925598234       -3.9544194894  MEMB      81              0.0000000000
     11659       109  DOPC      H12Y          -11.7606271617      -18.9958007107       -5.1121197681  MEMB      81              0.0000000000
     11660       109  DOPC      C313          -12.2211603834      -21.0505978567       -5.5051124701  MEMB      81              0.0000000000
     11661       109  DOPC      H13X          -12.1360877374      -21.0373302816       -6.6142136232  MEMB      81              0.0000000000
     11662       109  DOPC      H13Y          -11.2014115883      -21.2597076309       -5.1131740942  MEMB      81              0.0000000000
     11663       109  DOPC      C314          -13.1215266162      -22.2287089307       -5.0988265933  MEMB      81              0.0000000000
     11664       109  DOPC      H14X          -14.0826361164      -22.0948383385       -5.6346350297  MEMB      81              0.0000000000
     11665       109  DOPC      H14Y          -12.6416622204      -23.1540170556       -5.4942055170  MEMB      81              0.0000000000
     11666       109  DOPC      C315          -13.4181568040      -22.4649568774       -3.6031385825  MEMB      81              0.0000000000
     11667       109  DOPC      H15X          -12.8920975013      -21.7564675074       -2.9357573246  MEMB      81              0.0000000000
     11668       109  DOPC      H15Y          -13.0340882197      -23.4836008698       -3.3461737150  MEMB      81              0.0000000000
     11669       109  DOPC      C316          -14.9295685781      -22.4984754980       -3.3224743548  MEMB      81              0.0000000000
     11670       109  DOPC      H16X          -15.4044111714      -23.0443319338       -4.1634298104  MEMB      81              0.0000000000
     11671       109  DOPC      H16Y          -15.1489839130      -23.0772439979       -2.4053163280  MEMB      81              0.0000000000
     11672       109  DOPC      C317          -15.6400349880      -21.1468485091       -3.2395868099  MEMB      81              0.0000000000
     11673       109  DOPC      H17X          -15.5922220702      -20.6738476152       -4.2384060977  MEMB      81              0.0000000000
     11674       109  DOPC      H17Y          -16.7208443639      -21.3087168609       -3.0500835342  MEMB      81              0.0000000000
     11675       109  DOPC      C318          -15.1271294704      -20.1839756039       -2.1812442050  MEMB      81              0.0000000000
     11676       109  DOPC      H18X          -15.6579305056      -19.2227469870       -2.3320902753  MEMB      81              0.0000000000
     11677       109  DOPC      H18Y          -15.3365389662      -20.5331084521       -1.1510638518  MEMB      81              0.0000000000
     11678       109  DOPC      H18Z          -14.0384648788      -20.0055412137       -2.2787879056  MEMB      81              0.0000000000
     11679       110  DOPC      N              -9.7433614716       19.9356909405      -19.1661786585  MEMB      82              0.0000000000
     11680       110  DOPC      C12            -8.7581972378       19.1880877522      -18.2530173302  MEMB      82              0.0000000000
     11681       110  DOPC      H12A           -8.9820423039       19.3757416381      -17.2155628895  MEMB      82              0.0000000000
     11682       110  DOPC      H12B           -7.7410449580       19.5450594561      -18.4247746868  MEMB      82              0.0000000000
     11683       110  DOPC      C13           -11.1246826125       19.4037422404      -18.9364374907  MEMB      82              0.0000000000
     11684       110  DOPC      H13A          -11.1214779459       18.3160698906      -18.9666795055  MEMB      82              0.0000000000
     11685       110  DOPC      H13B          -11.5248144759       19.7120616519      -17.9685997141  MEMB      82              0.0000000000
     11686       110  DOPC      H13C          -11.8390302236       19.7684277265      -19.6644351267  MEMB      82              0.0000000000
     11687       110  DOPC      C14            -9.2913991915       19.7053090134      -20.5845782937  MEMB      82              0.0000000000
     11688       110  DOPC      H14A           -9.3438820125       18.6457332585      -20.8225981367  MEMB      82              0.0000000000
     11689       110  DOPC      H14B           -9.8325563375       20.2953661076      -21.3099900594  MEMB      82              0.0000000000
     11690       110  DOPC      H14C           -8.2282992412       19.9438315816      -20.6962522484  MEMB      82              0.0000000000
     11691       110  DOPC      C15            -9.7346239197       21.4158296941      -18.9394772836  MEMB      82              0.0000000000
     11692       110  DOPC      H15A          -10.0761490290       21.6709606735      -17.9394743173  MEMB      82              0.0000000000
     11693       110  DOPC      H15B          -10.3860227601       21.9383501563      -19.6305667500  MEMB      82              0.0000000000
     11694       110  DOPC      H15C           -8.7230297377       21.8159956520      -19.0278642542  MEMB      82              0.0000000000
     11695       110  DOPC      C11            -8.6591183551       17.6558160639      -18.4113281249  MEMB      82              0.0000000000
     11696       110  DOPC      H11A           -8.2319451042       17.2032861557      -17.4827224461  MEMB      82              0.0000000000
     11697       110  DOPC      H11B           -9.6616179918       17.1980876857      -18.5353226831  MEMB      82              0.0000000000
     11698       110  DOPC      P              -6.3130249565       17.1460893854      -19.4363545650  MEMB      82              0.0000000000
     11699       110  DOPC      O13            -5.7701417238       17.3060021581      -20.7935750812  MEMB      82              0.0000000000
     11700       110  DOPC      O14            -6.1115498895       15.8235198173      -18.8050205964  MEMB      82              0.0000000000
     11701       110  DOPC      O12            -7.8663380868       17.3593581767      -19.5480469581  MEMB      82              0.0000000000
     11702       110  DOPC      O11            -5.8744757533       18.3642377168      -18.4853946575  MEMB      82              0.0000000000
     11703       110  DOPC      C1             -4.5665774484       18.3802803589      -17.8933384765  MEMB      82              0.0000000000
     11704       110  DOPC      HA             -3.8411540071       18.8504136775      -18.5964654190  MEMB      82              0.0000000000
     11705       110  DOPC      HB             -4.1916458416       17.3480787271      -17.6840930191  MEMB      82              0.0000000000
     11706       110  DOPC      C2             -4.4933678288       19.1776390557      -16.5335692939  MEMB      82              0.0000000000
     11707       110  DOPC      HS             -3.4125711472       19.2159873611      -16.2473664376  MEMB      82              0.0000000000
     11708       110  DOPC      O21            -5.2860375599       18.5400293046      -15.5022593976  MEMB      82              0.0000000000
     11709       110  DOPC      C21            -4.6921219181       17.4615667849      -15.0139614950  MEMB      82              0.0000000000
     11710       110  DOPC      O22            -3.5483020099       17.1292610645      -15.2628067095  MEMB      82              0.0000000000
     11711       110  DOPC      C22            -5.6505261318       16.6987986094      -14.0938118203  MEMB      82              0.0000000000
     11712       110  DOPC      H2R            -5.4679361682       15.6200450420      -14.3019092875  MEMB      82              0.0000000000
     11713       110  DOPC      H2S            -6.6963541677       16.9343580610      -14.3735493937  MEMB      82              0.0000000000
     11714       110  DOPC      C3             -4.9422688404       20.6737046553      -16.6377287591  MEMB      82              0.0000000000
     11715       110  DOPC      HX             -5.0389470305       20.9471035800      -17.7127661148  MEMB      82              0.0000000000
     11716       110  DOPC      HY             -4.0905530958       21.2675116247      -16.2308151563  MEMB      82              0.0000000000
     11717       110  DOPC      O31            -6.0988296298       20.9803225919      -15.8129974939  MEMB      82              0.0000000000
     11718       110  DOPC      C31            -7.1576375271       21.4942887747      -16.3949347192  MEMB      82              0.0000000000
     11719       110  DOPC      O32            -7.2310799726       21.8184062841      -17.5689395955  MEMB      82              0.0000000000
     11720       110  DOPC      C32            -8.3208788925       21.6464744590      -15.4005515163  MEMB      82              0.0000000000
     11721       110  DOPC      H2X            -7.8951729426       21.5283577104      -14.3843698063  MEMB      82              0.0000000000
     11722       110  DOPC      H2Y            -8.6620438436       22.6968208044      -15.5097213164  MEMB      82              0.0000000000
     11723       110  DOPC      C23            -5.4081844339       16.9322622659      -12.5784796030  MEMB      82              0.0000000000
     11724       110  DOPC      H3R            -4.3413289858       16.7883295851      -12.3084633774  MEMB      82              0.0000000000
     11725       110  DOPC      H3S            -5.9847811277       16.1513571685      -12.0322379610  MEMB      82              0.0000000000
     11726       110  DOPC      C24            -5.8584195075       18.3073249695      -12.0856548079  MEMB      82              0.0000000000
     11727       110  DOPC      H4R            -6.8841259607       18.5026548824      -12.4706901590  MEMB      82              0.0000000000
     11728       110  DOPC      H4S            -5.1865969721       19.0943608283      -12.4997331779  MEMB      82              0.0000000000
     11729       110  DOPC      C25            -5.8863439445       18.4394145523      -10.5526145070  MEMB      82              0.0000000000
     11730       110  DOPC      H5R            -4.8426267370       18.4622967997      -10.1748575647  MEMB      82              0.0000000000
     11731       110  DOPC      H5S            -6.3884395103       17.5523484664      -10.1066263910  MEMB      82              0.0000000000
     11732       110  DOPC      C26            -6.6636294840       19.7035579594      -10.1609098602  MEMB      82              0.0000000000
     11733       110  DOPC      H6R            -7.7400090951       19.4620235230      -10.2683524201  MEMB      82              0.0000000000
     11734       110  DOPC      H6S            -6.4502771143       20.5006919768      -10.9039112268  MEMB      82              0.0000000000
     11735       110  DOPC      C27            -6.4198387452       20.2986901490       -8.7659535565  MEMB      82              0.0000000000
     11736       110  DOPC      H7R            -7.0361019330       19.7358860682       -8.0267094262  MEMB      82              0.0000000000
     11737       110  DOPC      H7S            -6.8391528341       21.3318176920       -8.7663408937  MEMB      82              0.0000000000
     11738       110  DOPC      C28            -4.9400706515       20.3861213853       -8.3324507866  MEMB      82              0.0000000000
     11739       110  DOPC      H8R            -4.7469377913       21.3929972635       -7.9054877898  MEMB      82              0.0000000000
     11740       110  DOPC      H8S            -4.2488951301       20.3342809489       -9.1974260322  MEMB      82              0.0000000000
     11741       110  DOPC      C29            -4.6636339374       19.3375351784       -7.2876169860  MEMB      82              0.0000000000
     11742       110  DOPC      H9R            -4.0921155981       18.4511848641       -7.6126461678  MEMB      82              0.0000000000
     11743       110  DOPC      C210           -5.0601528010       19.4911747347       -6.0076240933  MEMB      82              0.0000000000
     11744       110  DOPC      H10R           -4.8302686424       18.6976604042       -5.2768149797  MEMB      82              0.0000000000
     11745       110  DOPC      C211           -5.8039534441       20.7167129759       -5.4921419603  MEMB      82              0.0000000000
     11746       110  DOPC      H11R           -5.8541308156       21.5174388271       -6.2609824948  MEMB      82              0.0000000000
     11747       110  DOPC      H11S           -5.1954910983       21.1673388546       -4.6825652031  MEMB      82              0.0000000000
     11748       110  DOPC      C212           -7.2747036173       20.5945356481       -5.0093740090  MEMB      82              0.0000000000
     11749       110  DOPC      H12R           -7.3898412484       19.7234458008       -4.3339093195  MEMB      82              0.0000000000
     11750       110  DOPC      H12S           -7.9302713048       20.4368960059       -5.8963725344  MEMB      82              0.0000000000
     11751       110  DOPC      C213           -7.7727185268       21.8640713590       -4.2877777002  MEMB      82              0.0000000000
     11752       110  DOPC      H13R           -8.8599019497       21.9656966269       -4.2096952972  MEMB      82              0.0000000000
     11753       110  DOPC      H13S           -7.5135681589       22.7546583702       -4.8830059246  MEMB      82              0.0000000000
     11754       110  DOPC      C214           -7.2957218524       21.9957219277       -2.8484724773  MEMB      82              0.0000000000
     11755       110  DOPC      H14R           -7.6092710045       23.0078249069       -2.5103572270  MEMB      82              0.0000000000
     11756       110  DOPC      H14S           -6.1906635620       21.8937142827       -2.8100631994  MEMB      82              0.0000000000
     11757       110  DOPC      C215           -7.9630332766       21.0903964987       -1.8232905630  MEMB      82              0.0000000000
     11758       110  DOPC      H15R           -7.6335294991       20.0454036021       -2.0101030214  MEMB      82              0.0000000000
     11759       110  DOPC      H15S           -9.0666481931       21.1997604029       -1.9360092703  MEMB      82              0.0000000000
     11760       110  DOPC      C216           -7.5592189228       21.3728377684       -0.3825098589  MEMB      82              0.0000000000
     11761       110  DOPC      H16R           -8.2563011758       20.8214605160        0.2775493126  MEMB      82              0.0000000000
     11762       110  DOPC      H16S           -7.6880845781       22.4451572184       -0.1526837282  MEMB      82              0.0000000000
     11763       110  DOPC      C217           -6.1184004149       20.8846810951       -0.1657160776  MEMB      82              0.0000000000
     11764       110  DOPC      H17R           -5.5765832458       20.8728935091       -1.1370593026  MEMB      82              0.0000000000
     11765       110  DOPC      H17S           -6.1963903833       19.8287489233        0.1048151411  MEMB      82              0.0000000000
     11766       110  DOPC      C218           -5.2589907173       21.6512547464        0.8389372886  MEMB      82              0.0000000000
     11767       110  DOPC      H18R           -4.4044251670       22.1332770779        0.3131766352  MEMB      82              0.0000000000
     11768       110  DOPC      H18S           -4.8583163706       20.9865147249        1.6295550703  MEMB      82              0.0000000000
     11769       110  DOPC      H18T           -5.8557840699       22.4502239175        1.3161182918  MEMB      82              0.0000000000
     11770       110  DOPC      C33            -9.5739004825       20.7262524752      -15.5721985972  MEMB      82              0.0000000000
     11771       110  DOPC      H3X            -9.3285714775       19.6942534869      -15.2350386859  MEMB      82              0.0000000000
     11772       110  DOPC      H3Y            -9.9410843542       20.6725366117      -16.6006077184  MEMB      82              0.0000000000
     11773       110  DOPC      C34           -10.7992896286       21.2190217440      -14.7942851061  MEMB      82              0.0000000000
     11774       110  DOPC      H4X           -11.6385170618       20.4879891865      -14.8797072666  MEMB      82              0.0000000000
     11775       110  DOPC      H4Y           -11.1670147786       22.1884766602      -15.2063138055  MEMB      82              0.0000000000
     11776       110  DOPC      C35           -10.3553852833       21.3818617108      -13.3543049060  MEMB      82              0.0000000000
     11777       110  DOPC      H5X            -9.7034013615       22.2817729435      -13.2717958996  MEMB      82              0.0000000000
     11778       110  DOPC      H5Y            -9.7314787440       20.4915289423      -13.1086789347  MEMB      82              0.0000000000
     11779       110  DOPC      C36           -11.4571803295       21.4877273896      -12.3165068528  MEMB      82              0.0000000000
     11780       110  DOPC      H6X           -11.9891278067       22.4590562931      -12.4468059133  MEMB      82              0.0000000000
     11781       110  DOPC      H6Y           -12.2029025989       20.6700084853      -12.4151474340  MEMB      82              0.0000000000
     11782       110  DOPC      C37           -10.7913406373       21.4428113736      -10.9397235025  MEMB      82              0.0000000000
     11783       110  DOPC      H7X            -9.8847700642       22.0930372428      -10.9727118029  MEMB      82              0.0000000000
     11784       110  DOPC      H7Y           -11.4910132719       21.8756422375      -10.1980217333  MEMB      82              0.0000000000
     11785       110  DOPC      C38           -10.3380769705       20.0538649107      -10.4782562324  MEMB      82              0.0000000000
     11786       110  DOPC      H8X            -9.5384669556       20.2022287876       -9.7197792940  MEMB      82              0.0000000000
     11787       110  DOPC      H8Y            -9.9023075641       19.4476317139      -11.3010615579  MEMB      82              0.0000000000
     11788       110  DOPC      C39           -11.5103873362       19.3712043101       -9.8580947330  MEMB      82              0.0000000000
     11789       110  DOPC      H9X           -12.2483380426       18.9425955874      -10.5581263427  MEMB      82              0.0000000000
     11790       110  DOPC      C310          -11.7362879236       19.3232909923       -8.5398270112  MEMB      82              0.0000000000
     11791       110  DOPC      H10X          -12.6294490766       18.7913914191       -8.2351636332  MEMB      82              0.0000000000
     11792       110  DOPC      C311          -10.9278339076       19.9001147278       -7.3952693882  MEMB      82              0.0000000000
     11793       110  DOPC      H11X          -10.3328089465       20.7900234661       -7.7030592213  MEMB      82              0.0000000000
     11794       110  DOPC      H11Y          -10.1968204799       19.1315075309       -7.0674196509  MEMB      82              0.0000000000
     11795       110  DOPC      C312          -11.8052907634       20.2841323216       -6.1726810599  MEMB      82              0.0000000000
     11796       110  DOPC      H12X          -12.6479153461       19.5747373367       -6.0532657948  MEMB      82              0.0000000000
     11797       110  DOPC      H12Y          -12.2518647867       21.2875909865       -6.3602433547  MEMB      82              0.0000000000
     11798       110  DOPC      C313          -11.0655390240       20.3182012656       -4.8138907175  MEMB      82              0.0000000000
     11799       110  DOPC      H13X          -10.2080872086       20.9783044585       -4.9682348324  MEMB      82              0.0000000000
     11800       110  DOPC      H13Y          -11.7343184398       20.7800128537       -4.0529457274  MEMB      82              0.0000000000
     11801       110  DOPC      C314          -10.5988523116       18.9409909399       -4.2984254421  MEMB      82              0.0000000000
     11802       110  DOPC      H14X          -11.4783501426       18.2964870520       -4.3674960701  MEMB      82              0.0000000000
     11803       110  DOPC      H14Y           -9.8060106787       18.5446991470       -4.9682647159  MEMB      82              0.0000000000
     11804       110  DOPC      C315          -10.0669702988       18.8398099698       -2.8596675044  MEMB      82              0.0000000000
     11805       110  DOPC      H15X          -10.7148363525       19.3900662014       -2.1452211573  MEMB      82              0.0000000000
     11806       110  DOPC      H15Y           -9.0991107105       19.3385790120       -2.9523097934  MEMB      82              0.0000000000
     11807       110  DOPC      C316           -9.7407452623       17.4294276516       -2.3090759999  MEMB      82              0.0000000000
     11808       110  DOPC      H16X          -10.4826285171       16.6874334037       -2.6698898437  MEMB      82              0.0000000000
     11809       110  DOPC      H16Y           -8.7492859767       17.1078999392       -2.7028297369  MEMB      82              0.0000000000
     11810       110  DOPC      C317           -9.6943907418       17.3750301116       -0.7682868945  MEMB      82              0.0000000000
     11811       110  DOPC      H17X           -8.8978696145       18.0641663957       -0.4024279445  MEMB      82              0.0000000000
     11812       110  DOPC      H17Y          -10.6645631525       17.7422615515       -0.3583598623  MEMB      82              0.0000000000
     11813       110  DOPC      C318           -9.4215442981       15.9791848902       -0.2025201791  MEMB      82              0.0000000000
     11814       110  DOPC      H18X          -10.1781278244       15.2469751979       -0.5628979326  MEMB      82              0.0000000000
     11815       110  DOPC      H18Y           -8.4016334987       15.6271724238       -0.4661212966  MEMB      82              0.0000000000
     11816       110  DOPC      H18Z           -9.4560621512       16.0087109419        0.8977728122  MEMB      82              0.0000000000
     11817       111  DOPC      N              -5.1426818726      -21.1996161510      -20.8344525218  MEMB      83              0.0000000000
     11818       111  DOPC      C12            -5.1063956115      -21.1346076479      -19.3136521917  MEMB      83              0.0000000000
     11819       111  DOPC      H12A           -4.9709636490      -22.1475391980      -18.9342613170  MEMB      83              0.0000000000
     11820       111  DOPC      H12B           -6.0446523704      -20.7393809698      -18.9510883716  MEMB      83              0.0000000000
     11821       111  DOPC      C13            -3.8007098265      -21.6028991508      -21.3525428931  MEMB      83              0.0000000000
     11822       111  DOPC      H13A           -3.5820111175      -22.6193504402      -21.0331162134  MEMB      83              0.0000000000
     11823       111  DOPC      H13B           -3.7661854312      -21.5666427196      -22.4340648033  MEMB      83              0.0000000000
     11824       111  DOPC      H13C           -3.0346672241      -20.9412926205      -20.9577456707  MEMB      83              0.0000000000
     11825       111  DOPC      C14            -5.5019534381      -19.8416418430      -21.3695346905  MEMB      83              0.0000000000
     11826       111  DOPC      H14A           -5.5853099258      -19.8395695816      -22.4488114116  MEMB      83              0.0000000000
     11827       111  DOPC      H14B           -6.4444774045      -19.4970404791      -20.9720061411  MEMB      83              0.0000000000
     11828       111  DOPC      H14C           -4.7701082169      -19.1067525431      -21.0319683286  MEMB      83              0.0000000000
     11829       111  DOPC      C15            -6.1252038928      -22.2214617928      -21.3299133611  MEMB      83              0.0000000000
     11830       111  DOPC      H15A           -7.1154662477      -22.0556478406      -20.9394942441  MEMB      83              0.0000000000
     11831       111  DOPC      H15B           -5.7821584791      -23.2339419102      -21.1116869402  MEMB      83              0.0000000000
     11832       111  DOPC      H15C           -6.2293189665      -22.1424992239      -22.4146904738  MEMB      83              0.0000000000
     11833       111  DOPC      C11            -4.0267240136      -20.2535827106      -18.6159751753  MEMB      83              0.0000000000
     11834       111  DOPC      H11A           -4.1396541539      -20.4441729946      -17.5253121589  MEMB      83              0.0000000000
     11835       111  DOPC      H11B           -3.0097978437      -20.5941475809      -18.9056934470  MEMB      83              0.0000000000
     11836       111  DOPC      P              -3.3030825203      -17.9282566683      -17.8242184106  MEMB      83              0.0000000000
     11837       111  DOPC      O13            -3.4729489203      -16.5289406319      -18.2549403344  MEMB      83              0.0000000000
     11838       111  DOPC      O14            -1.9364057184      -18.4659210611      -17.6933713717  MEMB      83              0.0000000000
     11839       111  DOPC      O12            -4.1577364940      -18.8567998595      -18.8492003833  MEMB      83              0.0000000000
     11840       111  DOPC      O11            -4.0557171170      -18.1868365691      -16.4505373267  MEMB      83              0.0000000000
     11841       111  DOPC      C1             -5.4625417882      -18.1235083085      -16.2555031493  MEMB      83              0.0000000000
     11842       111  DOPC      HA             -5.7779682707      -18.9596585906      -15.5923944916  MEMB      83              0.0000000000
     11843       111  DOPC      HB             -6.0174666190      -18.2134845242      -17.2160811494  MEMB      83              0.0000000000
     11844       111  DOPC      C2             -5.8425212892      -16.7975414614      -15.5596888892  MEMB      83              0.0000000000
     11845       111  DOPC      HS             -5.4342087596      -15.9701395782      -16.1836149438  MEMB      83              0.0000000000
     11846       111  DOPC      O21            -5.1751275746      -16.8156422995      -14.2773575950  MEMB      83              0.0000000000
     11847       111  DOPC      C21            -5.3735147683      -16.0010106427      -13.2780175158  MEMB      83              0.0000000000
     11848       111  DOPC      O22            -6.4179165100      -15.5017002258      -12.9161547110  MEMB      83              0.0000000000
     11849       111  DOPC      C22            -4.0149128396      -15.6842930958      -12.6436142998  MEMB      83              0.0000000000
     11850       111  DOPC      H2R            -4.1960275108      -14.8560615215      -11.9298614135  MEMB      83              0.0000000000
     11851       111  DOPC      H2S            -3.3246773161      -15.3255272684      -13.4329304066  MEMB      83              0.0000000000
     11852       111  DOPC      C3             -7.4120957887      -16.6363087335      -15.4908720209  MEMB      83              0.0000000000
     11853       111  DOPC      HX             -7.7996344916      -16.9498794674      -16.4823263070  MEMB      83              0.0000000000
     11854       111  DOPC      HY             -7.5959997745      -15.5509813221      -15.4585880742  MEMB      83              0.0000000000
     11855       111  DOPC      O31            -8.1209245948      -17.3760985516      -14.4667404533  MEMB      83              0.0000000000
     11856       111  DOPC      C31            -8.9551907126      -16.6151394210      -13.7254519328  MEMB      83              0.0000000000
     11857       111  DOPC      O32            -9.2348561750      -15.4556410350      -13.9440070642  MEMB      83              0.0000000000
     11858       111  DOPC      C32            -9.4676907299      -17.3245294022      -12.4669727280  MEMB      83              0.0000000000
     11859       111  DOPC      H2X            -9.2635142689      -16.6081011402      -11.6401122178  MEMB      83              0.0000000000
     11860       111  DOPC      H2Y           -10.5624608203      -17.4268747416      -12.5619467371  MEMB      83              0.0000000000
     11861       111  DOPC      C23            -3.3985805379      -16.9103918995      -11.9367343128  MEMB      83              0.0000000000
     11862       111  DOPC      H3R            -2.9923639730      -17.6078191592      -12.7062374672  MEMB      83              0.0000000000
     11863       111  DOPC      H3S            -4.2034432216      -17.4611310159      -11.3979159927  MEMB      83              0.0000000000
     11864       111  DOPC      C24            -2.3074260192      -16.5902849131      -10.8950904727  MEMB      83              0.0000000000
     11865       111  DOPC      H4R            -1.4115292227      -16.1799325360      -11.4131797037  MEMB      83              0.0000000000
     11866       111  DOPC      H4S            -2.0027400062      -17.5539960206      -10.4238412410  MEMB      83              0.0000000000
     11867       111  DOPC      C25            -2.7169213681      -15.6075996599       -9.7759543391  MEMB      83              0.0000000000
     11868       111  DOPC      H5R            -2.6589311823      -14.5745624686      -10.1881009695  MEMB      83              0.0000000000
     11869       111  DOPC      H5S            -1.9753994412      -15.6688845096       -8.9469268202  MEMB      83              0.0000000000
     11870       111  DOPC      C26            -4.1331152174      -15.8066483284       -9.2062637468  MEMB      83              0.0000000000
     11871       111  DOPC      H6R            -4.8569055771      -15.9103151586      -10.0399181142  MEMB      83              0.0000000000
     11872       111  DOPC      H6S            -4.4110727684      -14.9186405720       -8.5963488365  MEMB      83              0.0000000000
     11873       111  DOPC      C27            -4.3203944163      -17.0586184844       -8.3626191153  MEMB      83              0.0000000000
     11874       111  DOPC      H7R            -3.4825866935      -17.1214781944       -7.6310619113  MEMB      83              0.0000000000
     11875       111  DOPC      H7S            -4.2511519064      -17.9300607317       -9.0465040754  MEMB      83              0.0000000000
     11876       111  DOPC      C28            -5.6523970119      -17.1094275767       -7.5747971809  MEMB      83              0.0000000000
     11877       111  DOPC      H8R            -5.5964798737      -16.2912391958       -6.8204734060  MEMB      83              0.0000000000
     11878       111  DOPC      H8S            -5.6307457074      -18.0497581470       -6.9919419946  MEMB      83              0.0000000000
     11879       111  DOPC      C29            -6.9774758230      -17.0003468900       -8.3013899200  MEMB      83              0.0000000000
     11880       111  DOPC      H9R            -7.1246270867      -16.0497998041       -8.8212024278  MEMB      83              0.0000000000
     11881       111  DOPC      C210           -7.9820787817      -17.9007950520       -8.3745470446  MEMB      83              0.0000000000
     11882       111  DOPC      H10R           -8.8986935818      -17.6121167806       -8.9150738219  MEMB      83              0.0000000000
     11883       111  DOPC      C211           -8.0340053977      -19.2704644770       -7.7470359377  MEMB      83              0.0000000000
     11884       111  DOPC      H11R           -7.0324006468      -19.5871937968       -7.4133568498  MEMB      83              0.0000000000
     11885       111  DOPC      H11S           -8.3263288132      -20.0087825727       -8.5303614983  MEMB      83              0.0000000000
     11886       111  DOPC      C212           -8.9950936108      -19.4918026921       -6.5594723213  MEMB      83              0.0000000000
     11887       111  DOPC      H12R           -8.7401723245      -20.4539293759       -6.0861729891  MEMB      83              0.0000000000
     11888       111  DOPC      H12S          -10.0076249683      -19.6661629536       -6.9812289150  MEMB      83              0.0000000000
     11889       111  DOPC      C213           -9.1091919542      -18.3855215854       -5.4866870462  MEMB      83              0.0000000000
     11890       111  DOPC      H13R           -9.7708576480      -18.7505807622       -4.6712813463  MEMB      83              0.0000000000
     11891       111  DOPC      H13S           -9.6110793830      -17.5231888735       -5.9767093098  MEMB      83              0.0000000000
     11892       111  DOPC      C214           -7.8572117678      -17.7997254238       -4.8170561258  MEMB      83              0.0000000000
     11893       111  DOPC      H14R           -7.2033888322      -17.3793629510       -5.6014657530  MEMB      83              0.0000000000
     11894       111  DOPC      H14S           -7.2704927501      -18.5565100002       -4.2577933617  MEMB      83              0.0000000000
     11895       111  DOPC      C215           -8.2592678976      -16.6241718803       -3.9089239003  MEMB      83              0.0000000000
     11896       111  DOPC      H15R           -9.1642736010      -16.1449277733       -4.3467348922  MEMB      83              0.0000000000
     11897       111  DOPC      H15S           -7.4569929207      -15.8522749512       -3.8859079292  MEMB      83              0.0000000000
     11898       111  DOPC      C216           -8.5929126851      -17.0312432066       -2.4744803565  MEMB      83              0.0000000000
     11899       111  DOPC      H16R           -9.1332090841      -18.0010265765       -2.4597719108  MEMB      83              0.0000000000
     11900       111  DOPC      H16S           -9.2837268066      -16.2604637606       -2.0630668647  MEMB      83              0.0000000000
     11901       111  DOPC      C217           -7.3415503560      -17.0900700223       -1.5963556262  MEMB      83              0.0000000000
     11902       111  DOPC      H17R           -6.9232517645      -16.0589615604       -1.5098829624  MEMB      83              0.0000000000
     11903       111  DOPC      H17S           -6.5653828550      -17.7200475262       -2.0874959064  MEMB      83              0.0000000000
     11904       111  DOPC      C218           -7.6004691880      -17.6350850753       -0.1981814344  MEMB      83              0.0000000000
     11905       111  DOPC      H18R           -8.6015649331      -17.3652028212        0.1912321166  MEMB      83              0.0000000000
     11906       111  DOPC      H18S           -6.8453356851      -17.2111577895        0.5017729636  MEMB      83              0.0000000000
     11907       111  DOPC      H18T           -7.5233949631      -18.7442421887       -0.1927019211  MEMB      83              0.0000000000
     11908       111  DOPC      C33            -8.8095768799      -18.6715773394      -12.1059460189  MEMB      83              0.0000000000
     11909       111  DOPC      H3X            -8.9105522514      -19.3955144524      -12.9438883453  MEMB      83              0.0000000000
     11910       111  DOPC      H3Y            -9.3370826705      -19.0918882584      -11.2183725827  MEMB      83              0.0000000000
     11911       111  DOPC      C34            -7.3430772705      -18.4288529246      -11.7517904225  MEMB      83              0.0000000000
     11912       111  DOPC      H4X            -7.2647028337      -17.6725045559      -10.9432421064  MEMB      83              0.0000000000
     11913       111  DOPC      H4Y            -6.8600228606      -17.9814982311      -12.6417318190  MEMB      83              0.0000000000
     11914       111  DOPC      C35            -6.5132766528      -19.6597705949      -11.4020442119  MEMB      83              0.0000000000
     11915       111  DOPC      H5X            -7.1667343315      -20.5446574390      -11.2630339217  MEMB      83              0.0000000000
     11916       111  DOPC      H5Y            -6.0117570380      -19.4522665417      -10.4329817431  MEMB      83              0.0000000000
     11917       111  DOPC      C36            -5.4479136913      -19.9143191228      -12.4858174173  MEMB      83              0.0000000000
     11918       111  DOPC      H6X            -5.9714292785      -20.2981648730      -13.3871642036  MEMB      83              0.0000000000
     11919       111  DOPC      H6Y            -4.9651081170      -18.9609695597      -12.7798888442  MEMB      83              0.0000000000
     11920       111  DOPC      C37            -4.3446306547      -20.8947530691      -12.0694125760  MEMB      83              0.0000000000
     11921       111  DOPC      H7X            -4.8676021056      -21.7193176847      -11.5462990162  MEMB      83              0.0000000000
     11922       111  DOPC      H7Y            -3.8373272698      -21.3086746832      -12.9715185879  MEMB      83              0.0000000000
     11923       111  DOPC      C38            -3.2754762362      -20.3055192506      -11.1337553888  MEMB      83              0.0000000000
     11924       111  DOPC      H8X            -3.7498057934      -19.5491071507      -10.4733500696  MEMB      83              0.0000000000
     11925       111  DOPC      H8Y            -2.4984528887      -19.7734083190      -11.7259376053  MEMB      83              0.0000000000
     11926       111  DOPC      C39            -2.6930986074      -21.4328441259      -10.3240486641  MEMB      83              0.0000000000
     11927       111  DOPC      H9X            -1.8163536282      -21.9342603026      -10.7617307324  MEMB      83              0.0000000000
     11928       111  DOPC      C310           -3.2579681802      -21.9158468046       -9.2035649051  MEMB      83              0.0000000000
     11929       111  DOPC      H10X           -2.8147246876      -22.7875144620       -8.7019783648  MEMB      83              0.0000000000
     11930       111  DOPC      C311           -4.5371854219      -21.4231222179       -8.5800150939  MEMB      83              0.0000000000
     11931       111  DOPC      H11X           -5.1200820150      -22.2933885918       -8.2247599213  MEMB      83              0.0000000000
     11932       111  DOPC      H11Y           -5.1936216795      -20.9259923944       -9.3229614992  MEMB      83              0.0000000000
     11933       111  DOPC      C312           -4.3284974383      -20.4438875074       -7.4118268605  MEMB      83              0.0000000000
     11934       111  DOPC      H12X           -5.2918899108      -20.3027184390       -6.8841411314  MEMB      83              0.0000000000
     11935       111  DOPC      H12Y           -4.0060217966      -19.4689722366       -7.8122292314  MEMB      83              0.0000000000
     11936       111  DOPC      C313           -3.2878272305      -20.8530889342       -6.3754305453  MEMB      83              0.0000000000
     11937       111  DOPC      H13X           -3.2857085774      -21.9643915854       -6.3155595870  MEMB      83              0.0000000000
     11938       111  DOPC      H13Y           -2.2890512040      -20.5184537238       -6.7407821967  MEMB      83              0.0000000000
     11939       111  DOPC      C314           -3.5391904859      -20.2750667381       -4.9701358968  MEMB      83              0.0000000000
     11940       111  DOPC      H14X           -4.3602849787      -20.8449818569       -4.4855191379  MEMB      83              0.0000000000
     11941       111  DOPC      H14Y           -2.6223919064      -20.4354037487       -4.3610373135  MEMB      83              0.0000000000
     11942       111  DOPC      C315           -3.9169008082      -18.7843849097       -4.9299713569  MEMB      83              0.0000000000
     11943       111  DOPC      H15X           -4.9982050072      -18.6823776498       -5.1663012899  MEMB      83              0.0000000000
     11944       111  DOPC      H15Y           -3.3315345171      -18.2294753838       -5.6960752487  MEMB      83              0.0000000000
     11945       111  DOPC      C316           -3.6621563588      -18.1582245745       -3.5532098071  MEMB      83              0.0000000000
     11946       111  DOPC      H16X           -4.2475540358      -18.7151986754       -2.7873748414  MEMB      83              0.0000000000
     11947       111  DOPC      H16Y           -2.5806589865      -18.2755052519       -3.3137958427  MEMB      83              0.0000000000
     11948       111  DOPC      C317           -4.0153348600      -16.6684896818       -3.4538615904  MEMB      83              0.0000000000
     11949       111  DOPC      H17X           -3.5086250280      -16.1155744639       -4.2778354730  MEMB      83              0.0000000000
     11950       111  DOPC      H17Y           -5.1119085379      -16.5257712950       -3.5881474548  MEMB      83              0.0000000000
     11951       111  DOPC      C318           -3.5742867809      -16.0803136256       -2.1122731771  MEMB      83              0.0000000000
     11952       111  DOPC      H18X           -3.7820088575      -14.9999765409       -2.0652856080  MEMB      83              0.0000000000
     11953       111  DOPC      H18Y           -4.1055672723      -16.5613958167       -1.2658318013  MEMB      83              0.0000000000
     11954       111  DOPC      H18Z           -2.4823326042      -16.2238467541       -1.9708635157  MEMB      83              0.0000000000
     11955       112  DOPC      N             -16.0807548417       12.1056413276      -17.2444400265  MEMB      84              0.0000000000
     11956       112  DOPC      C12           -15.4693186875       11.2460543121      -18.3469608846  MEMB      84              0.0000000000
     11957       112  DOPC      H12A          -15.2521103230       10.2594407222      -17.9634969165  MEMB      84              0.0000000000
     11958       112  DOPC      H12B          -14.5040543075       11.6705546309      -18.6368474615  MEMB      84              0.0000000000
     11959       112  DOPC      C13           -16.0798698676       13.5374823769      -17.6984846885  MEMB      84              0.0000000000
     11960       112  DOPC      H13A          -16.6968485865       14.1815186021      -17.0851643115  MEMB      84              0.0000000000
     11961       112  DOPC      H13B          -15.0816196954       13.9518701983      -17.7500976220  MEMB      84              0.0000000000
     11962       112  DOPC      H13C          -16.4591005453       13.5777227756      -18.7212547221  MEMB      84              0.0000000000
     11963       112  DOPC      C14           -15.3188307779       11.9758309998      -15.9689139413  MEMB      84              0.0000000000
     11964       112  DOPC      H14A          -15.6458095387       12.7231834038      -15.2555709101  MEMB      84              0.0000000000
     11965       112  DOPC      H14B          -15.4474979283       10.9971774337      -15.5189783964  MEMB      84              0.0000000000
     11966       112  DOPC      H14C          -14.2556748890       12.1303418890      -16.1314019029  MEMB      84              0.0000000000
     11967       112  DOPC      C15           -17.5212572905       11.7331570575      -17.0196543587  MEMB      84              0.0000000000
     11968       112  DOPC      H15A          -17.9345574512       12.2427724544      -16.1554893073  MEMB      84              0.0000000000
     11969       112  DOPC      H15B          -17.6575479887       10.6653046528      -16.9035817822  MEMB      84              0.0000000000
     11970       112  DOPC      H15C          -18.1247319191       12.0653736913      -17.8706905642  MEMB      84              0.0000000000
     11971       112  DOPC      C11           -16.2816613650       11.1077086624      -19.6598629292  MEMB      84              0.0000000000
     11972       112  DOPC      H11A          -15.9085572992       10.2408108233      -20.2529703442  MEMB      84              0.0000000000
     11973       112  DOPC      H11B          -17.3533157464       10.8947936569      -19.4584208408  MEMB      84              0.0000000000
     11974       112  DOPC      P             -14.9082012682       12.6915350857      -21.2109202003  MEMB      84              0.0000000000
     11975       112  DOPC      O13           -14.3941370382       13.9258366070      -20.6034636490  MEMB      84              0.0000000000
     11976       112  DOPC      O14           -15.1654492308       12.7226169955      -22.6724876264  MEMB      84              0.0000000000
     11977       112  DOPC      O12           -16.2085585544       12.3047927519      -20.4117921082  MEMB      84              0.0000000000
     11978       112  DOPC      O11           -13.8816823116       11.5215600720      -20.9735048222  MEMB      84              0.0000000000
     11979       112  DOPC      C1            -12.5618052848       11.7106669071      -21.5119289571  MEMB      84              0.0000000000
     11980       112  DOPC      HA            -12.4437823245       12.5901978758      -22.1924986630  MEMB      84              0.0000000000
     11981       112  DOPC      HB            -12.2927636876       10.8195786978      -22.1301294199  MEMB      84              0.0000000000
     11982       112  DOPC      C2            -11.4767575279       11.7709134402      -20.4158168038  MEMB      84              0.0000000000
     11983       112  DOPC      HS            -10.5881770069       11.2795764993      -20.8768973498  MEMB      84              0.0000000000
     11984       112  DOPC      O21           -11.9175669874       11.1193297406      -19.2079375978  MEMB      84              0.0000000000
     11985       112  DOPC      C21           -11.6820348879        9.8136937919      -19.1803365286  MEMB      84              0.0000000000
     11986       112  DOPC      O22           -11.1381672015        9.1908939120      -20.0778241943  MEMB      84              0.0000000000
     11987       112  DOPC      C22           -12.0744463882        9.2223923725      -17.8304866052  MEMB      84              0.0000000000
     11988       112  DOPC      H2R           -11.3080520278        8.4570057061      -17.5753115653  MEMB      84              0.0000000000
     11989       112  DOPC      H2S           -13.0560127126        8.7161619332      -17.9236981624  MEMB      84              0.0000000000
     11990       112  DOPC      C3            -10.9931278328       13.2162459330      -20.0539970782  MEMB      84              0.0000000000
     11991       112  DOPC      HX            -10.6639050892       13.6755899757      -21.0042976496  MEMB      84              0.0000000000
     11992       112  DOPC      HY            -10.0864093830       13.1232657958      -19.4125874766  MEMB      84              0.0000000000
     11993       112  DOPC      O31           -11.9562219394       14.1145590447      -19.4853852144  MEMB      84              0.0000000000
     11994       112  DOPC      C31           -12.0271031861       14.0928862511      -18.1684676082  MEMB      84              0.0000000000
     11995       112  DOPC      O32           -11.4290049717       13.3239722726      -17.4345947965  MEMB      84              0.0000000000
     11996       112  DOPC      C32           -12.8871540881       15.2572489573      -17.6546085944  MEMB      84              0.0000000000
     11997       112  DOPC      H2X           -12.3257903741       16.1914046218      -17.8621032428  MEMB      84              0.0000000000
     11998       112  DOPC      H2Y           -13.8284105768       15.2783301453      -18.2391623543  MEMB      84              0.0000000000
     11999       112  DOPC      C23           -12.0974273029       10.2930008795      -16.7269910744  MEMB      84              0.0000000000
     12000       112  DOPC      H3R           -12.9612998053       10.9697176643      -16.8834610154  MEMB      84              0.0000000000
     12001       112  DOPC      H3S           -11.1819986351       10.9278458480      -16.7913519409  MEMB      84              0.0000000000
     12002       112  DOPC      C24           -12.1360352771        9.7021006036      -15.3189651277  MEMB      84              0.0000000000
     12003       112  DOPC      H4R           -11.2231932313        9.0835554194      -15.1514078371  MEMB      84              0.0000000000
     12004       112  DOPC      H4S           -13.0147565643        9.0261405874      -15.2304394923  MEMB      84              0.0000000000
     12005       112  DOPC      C25           -12.1705145206       10.8151325932      -14.2685636530  MEMB      84              0.0000000000
     12006       112  DOPC      H5R           -13.0243475709       11.4893324639      -14.4868635494  MEMB      84              0.0000000000
     12007       112  DOPC      H5S           -11.2437038874       11.4203609359      -14.3622446352  MEMB      84              0.0000000000
     12008       112  DOPC      C26           -12.2929733472       10.3427705115      -12.8179845131  MEMB      84              0.0000000000
     12009       112  DOPC      H6R           -12.4380265596       11.2448586960      -12.1835878093  MEMB      84              0.0000000000
     12010       112  DOPC      H6S           -11.3427981668        9.8580426424      -12.4950472266  MEMB      84              0.0000000000
     12011       112  DOPC      C27           -13.4549210955        9.3650457998      -12.5956199289  MEMB      84              0.0000000000
     12012       112  DOPC      H7R           -13.1389139145        8.3755209358      -12.9954401067  MEMB      84              0.0000000000
     12013       112  DOPC      H7S           -14.3463069757        9.6792400510      -13.1818039830  MEMB      84              0.0000000000
     12014       112  DOPC      C28           -13.8192869229        9.2108381354      -11.1105670350  MEMB      84              0.0000000000
     12015       112  DOPC      H8R           -12.8829731216        9.2802811735      -10.5142673766  MEMB      84              0.0000000000
     12016       112  DOPC      H8S           -14.2310446119        8.1899845452      -10.9595844415  MEMB      84              0.0000000000
     12017       112  DOPC      C29           -14.8007614757       10.2655888281      -10.6703317568  MEMB      84              0.0000000000
     12018       112  DOPC      H9R           -14.6861613542       11.2425111436      -11.1669040869  MEMB      84              0.0000000000
     12019       112  DOPC      C210          -15.7475951355       10.1371589045       -9.7244659550  MEMB      84              0.0000000000
     12020       112  DOPC      H10R          -16.3801210112       11.0090430787       -9.4924036809  MEMB      84              0.0000000000
     12021       112  DOPC      C211          -16.0346700404        8.9126955737       -8.8947289435  MEMB      84              0.0000000000
     12022       112  DOPC      H11R          -15.5786847272        7.9983983975       -9.3345161970  MEMB      84              0.0000000000
     12023       112  DOPC      H11S          -17.1315545871        8.7332679340       -8.8591453952  MEMB      84              0.0000000000
     12024       112  DOPC      C212          -15.5060041828        9.0620618326       -7.4536486023  MEMB      84              0.0000000000
     12025       112  DOPC      H12R          -14.4011018540        9.2005594816       -7.4629729595  MEMB      84              0.0000000000
     12026       112  DOPC      H12S          -15.7162486539        8.1126685761       -6.9129251922  MEMB      84              0.0000000000
     12027       112  DOPC      C213          -16.1530967653       10.2216206209       -6.6795447751  MEMB      84              0.0000000000
     12028       112  DOPC      H13R          -17.2514216712       10.2030616691       -6.8608245957  MEMB      84              0.0000000000
     12029       112  DOPC      H13S          -15.7623673247       11.1879623019       -7.0663109290  MEMB      84              0.0000000000
     12030       112  DOPC      C214          -15.9065625232       10.1472061562       -5.1654513706  MEMB      84              0.0000000000
     12031       112  DOPC      H14R          -14.8160261155       10.1681134978       -4.9535885509  MEMB      84              0.0000000000
     12032       112  DOPC      H14S          -16.2972368276        9.1667817278       -4.8067731373  MEMB      84              0.0000000000
     12033       112  DOPC      C215          -16.6279409473       11.2674120170       -4.3988610773  MEMB      84              0.0000000000
     12034       112  DOPC      H15R          -16.8419588208       10.9242523540       -3.3618557554  MEMB      84              0.0000000000
     12035       112  DOPC      H15S          -17.6092193127       11.4554730223       -4.8916082925  MEMB      84              0.0000000000
     12036       112  DOPC      C216          -15.8489345697       12.5887768874       -4.3143238024  MEMB      84              0.0000000000
     12037       112  DOPC      H16R          -16.5366510280       13.3664585766       -3.9072957235  MEMB      84              0.0000000000
     12038       112  DOPC      H16S          -15.5418612384       12.9153464237       -5.3331870223  MEMB      84              0.0000000000
     12039       112  DOPC      C217          -14.6111899790       12.5209365427       -3.4065666438  MEMB      84              0.0000000000
     12040       112  DOPC      H17R          -13.7922014926       11.9977256810       -3.9508345503  MEMB      84              0.0000000000
     12041       112  DOPC      H17S          -14.8489223930       11.9323755836       -2.4914403586  MEMB      84              0.0000000000
     12042       112  DOPC      C218          -14.1281333227       13.9006565884       -2.9709214853  MEMB      84              0.0000000000
     12043       112  DOPC      H18R          -14.4569487337       14.6583044485       -3.7111501989  MEMB      84              0.0000000000
     12044       112  DOPC      H18S          -13.0202817225       13.9401263423       -2.8892099090  MEMB      84              0.0000000000
     12045       112  DOPC      H18T          -14.5591621389       14.1815297957       -1.9868176308  MEMB      84              0.0000000000
     12046       112  DOPC      C33           -13.1732762535       15.1709660596      -16.1287936475  MEMB      84              0.0000000000
     12047       112  DOPC      H3X           -12.2328953632       15.3614635996      -15.5716687645  MEMB      84              0.0000000000
     12048       112  DOPC      H3Y           -13.5042338615       14.1429780906      -15.8684164829  MEMB      84              0.0000000000
     12049       112  DOPC      C34           -14.2502047718       16.1585664508      -15.6435135321  MEMB      84              0.0000000000
     12050       112  DOPC      H4X           -15.1109817715       16.1141533564      -16.3519059401  MEMB      84              0.0000000000
     12051       112  DOPC      H4Y           -13.8694426949       17.2010118776      -15.6856613322  MEMB      84              0.0000000000
     12052       112  DOPC      C35           -14.8096312051       15.8570758095      -14.2367672136  MEMB      84              0.0000000000
     12053       112  DOPC      H5X           -15.1482104653       14.8015664887      -14.2068924490  MEMB      84              0.0000000000
     12054       112  DOPC      H5Y           -15.7190218627       16.4871579810      -14.0888517521  MEMB      84              0.0000000000
     12055       112  DOPC      C36           -13.8542863582       16.1448275409      -13.0653783931  MEMB      84              0.0000000000
     12056       112  DOPC      H6X           -12.8959942205       15.6018319415      -13.2082326883  MEMB      84              0.0000000000
     12057       112  DOPC      H6Y           -13.6323397677       17.2384029104      -13.0582540780  MEMB      84              0.0000000000
     12058       112  DOPC      C37           -14.4392998527       15.7695759040      -11.6870783789  MEMB      84              0.0000000000
     12059       112  DOPC      H7X           -13.7137317498       16.0948147515      -10.9040538174  MEMB      84              0.0000000000
     12060       112  DOPC      H7Y           -15.3855900752       16.3340193480      -11.5232676450  MEMB      84              0.0000000000
     12061       112  DOPC      C38           -14.7033034395       14.2585198165      -11.5284952541  MEMB      84              0.0000000000
     12062       112  DOPC      H8X           -13.7600076916       13.7282180531      -11.7900822187  MEMB      84              0.0000000000
     12063       112  DOPC      H8Y           -15.4666538171       13.9403993028      -12.2691978852  MEMB      84              0.0000000000
     12064       112  DOPC      C39           -15.1810739419       13.8850854999      -10.1466319134  MEMB      84              0.0000000000
     12065       112  DOPC      H9X           -16.2177837580       14.1723725228       -9.9102632590  MEMB      84              0.0000000000
     12066       112  DOPC      C310          -14.4547841306       13.2558656551       -9.2064872533  MEMB      84              0.0000000000
     12067       112  DOPC      H10X          -14.9117688325       13.0377990296       -8.2282261837  MEMB      84              0.0000000000
     12068       112  DOPC      C311          -13.0229236097       12.7998498494       -9.3373070529  MEMB      84              0.0000000000
     12069       112  DOPC      H11X          -12.7908468213       12.3823708036      -10.3390203472  MEMB      84              0.0000000000
     12070       112  DOPC      H11Y          -12.8205015828       11.9907102159       -8.6008088011  MEMB      84              0.0000000000
     12071       112  DOPC      C312          -12.0699275410       13.9648236321       -9.0686811505  MEMB      84              0.0000000000
     12072       112  DOPC      H12X          -12.1197747437       14.7202903307       -9.8841994103  MEMB      84              0.0000000000
     12073       112  DOPC      H12Y          -11.0247740257       13.5880596016       -9.0259205685  MEMB      84              0.0000000000
     12074       112  DOPC      C313          -12.4053400378       14.6550891014       -7.7579596373  MEMB      84              0.0000000000
     12075       112  DOPC      H13X          -13.3116897005       15.2934449307       -7.8847826633  MEMB      84              0.0000000000
     12076       112  DOPC      H13Y          -12.6322073033       13.8851816617       -6.9847317234  MEMB      84              0.0000000000
     12077       112  DOPC      C314          -11.2677236808       15.5331155117       -7.2812411487  MEMB      84              0.0000000000
     12078       112  DOPC      H14X          -10.5007472608       14.8992808507       -6.8004033822  MEMB      84              0.0000000000
     12079       112  DOPC      H14Y          -10.7930885021       16.0507372571       -8.1463603579  MEMB      84              0.0000000000
     12080       112  DOPC      C315          -11.7758753185       16.5765303149       -6.3033916633  MEMB      84              0.0000000000
     12081       112  DOPC      H15X          -12.4395396888       17.2653685672       -6.8628029924  MEMB      84              0.0000000000
     12082       112  DOPC      H15Y          -10.8925482756       17.1478496401       -5.9721833824  MEMB      84              0.0000000000
     12083       112  DOPC      C316          -12.5686886221       16.0107507698       -5.1172270196  MEMB      84              0.0000000000
     12084       112  DOPC      H16X          -13.1361984420       15.1053899505       -5.4089729894  MEMB      84              0.0000000000
     12085       112  DOPC      H16Y          -11.8613373616       15.7004418189       -4.3174461766  MEMB      84              0.0000000000
     12086       112  DOPC      C317          -13.6139424033       16.9911079537       -4.5746721458  MEMB      84              0.0000000000
     12087       112  DOPC      H17X          -13.5666729132       17.9418194327       -5.1474026044  MEMB      84              0.0000000000
     12088       112  DOPC      H17Y          -14.6368870971       16.5846374571       -4.7505501425  MEMB      84              0.0000000000
     12089       112  DOPC      C318          -13.4281710873       17.2992488929       -3.0932300935  MEMB      84              0.0000000000
     12090       112  DOPC      H18X          -13.8459139570       16.4905168571       -2.4601850770  MEMB      84              0.0000000000
     12091       112  DOPC      H18Y          -12.3798924172       17.4352884338       -2.7964374662  MEMB      84              0.0000000000
     12092       112  DOPC      H18Z          -13.9237207794       18.2645328812       -2.8687213603  MEMB      84              0.0000000000
     12093       113  DOPC      N               4.3883855123      -23.3476688147      -19.6799988675  MEMB      85              0.0000000000
     12094       113  DOPC      C12             3.0659048360      -22.6902828674      -19.2720434657  MEMB      85              0.0000000000
     12095       113  DOPC      H12A            2.4588133215      -23.3617800364      -18.6931592549  MEMB      85              0.0000000000
     12096       113  DOPC      H12B            2.5013595427      -22.4561320919      -20.1744541376  MEMB      85              0.0000000000
     12097       113  DOPC      C13             5.3843476309      -23.2554933665      -18.5688904738  MEMB      85              0.0000000000
     12098       113  DOPC      H13A            5.0670495227      -23.7869616598      -17.6854514586  MEMB      85              0.0000000000
     12099       113  DOPC      H13B            6.3620577076      -23.5997483412      -18.8881613411  MEMB      85              0.0000000000
     12100       113  DOPC      H13C            5.4823088394      -22.2005564284      -18.2913419357  MEMB      85              0.0000000000
     12101       113  DOPC      C14             4.9266379750      -22.5651819690      -20.8519847108  MEMB      85              0.0000000000
     12102       113  DOPC      H14A            4.2978748535      -22.6822894379      -21.7283638307  MEMB      85              0.0000000000
     12103       113  DOPC      H14B            4.8765179209      -21.4955063173      -20.6262124029  MEMB      85              0.0000000000
     12104       113  DOPC      H14C            5.9473955484      -22.7965214484      -21.1180479451  MEMB      85              0.0000000000
     12105       113  DOPC      C15             4.2234564167      -24.7461983794      -20.1366146468  MEMB      85              0.0000000000
     12106       113  DOPC      H15A            3.5237686644      -24.8151239242      -20.9669937410  MEMB      85              0.0000000000
     12107       113  DOPC      H15B            3.8450572054      -25.3803007263      -19.3505992607  MEMB      85              0.0000000000
     12108       113  DOPC      H15C            5.1944406953      -25.1098467056      -20.4670165005  MEMB      85              0.0000000000
     12109       113  DOPC      C11             3.1715397259      -21.3334699769      -18.5363555095  MEMB      85              0.0000000000
     12110       113  DOPC      H11A            2.1391995255      -20.9575152103      -18.3165297113  MEMB      85              0.0000000000
     12111       113  DOPC      H11B            3.6960402072      -21.4458813557      -17.5564069218  MEMB      85              0.0000000000
     12112       113  DOPC      P               4.0864106676      -18.9408046311      -19.1087233795  MEMB      85              0.0000000000
     12113       113  DOPC      O13             2.7537692469      -18.3147595309      -18.9772159992  MEMB      85              0.0000000000
     12114       113  DOPC      O14             4.9784716548      -18.3153317995      -20.1066269288  MEMB      85              0.0000000000
     12115       113  DOPC      O12             3.8641253355      -20.4494602523      -19.4089444719  MEMB      85              0.0000000000
     12116       113  DOPC      O11             4.8759286574      -19.0736686156      -17.6992304431  MEMB      85              0.0000000000
     12117       113  DOPC      C1              6.2756137269      -19.4267933156      -17.8464857281  MEMB      85              0.0000000000
     12118       113  DOPC      HA              6.8223991737      -18.5938559283      -18.3442911467  MEMB      85              0.0000000000
     12119       113  DOPC      HB              6.3862415638      -20.3426412771      -18.4781705303  MEMB      85              0.0000000000
     12120       113  DOPC      C2              7.0977079039      -19.7587197309      -16.5465732417  MEMB      85              0.0000000000
     12121       113  DOPC      HS              8.0950085786      -20.0990507630      -16.9159198230  MEMB      85              0.0000000000
     12122       113  DOPC      O21             6.4373290329      -20.7809023042      -15.7755313033  MEMB      85              0.0000000000
     12123       113  DOPC      C21             7.2538517803      -21.5981291064      -15.1188003446  MEMB      85              0.0000000000
     12124       113  DOPC      O22             8.4498795715      -21.7220171351      -15.3147195378  MEMB      85              0.0000000000
     12125       113  DOPC      C22             6.4448035308      -22.4063152560      -14.1246469892  MEMB      85              0.0000000000
     12126       113  DOPC      H2R             5.7292813867      -23.0373153876      -14.6900188882  MEMB      85              0.0000000000
     12127       113  DOPC      H2S             5.8661821401      -21.6781320649      -13.5199223453  MEMB      85              0.0000000000
     12128       113  DOPC      C3              7.3634889061      -18.5320985820      -15.6223573745  MEMB      85              0.0000000000
     12129       113  DOPC      HX              6.3783211027      -18.1934941736      -15.2292339735  MEMB      85              0.0000000000
     12130       113  DOPC      HY              7.8153542100      -17.7168855253      -16.2289079868  MEMB      85              0.0000000000
     12131       113  DOPC      O31             8.2464438768      -18.9036888386      -14.5407184560  MEMB      85              0.0000000000
     12132       113  DOPC      C31             8.6259080074      -17.9190888280      -13.7325874167  MEMB      85              0.0000000000
     12133       113  DOPC      O32             8.4010271606      -16.7332124479      -13.8757156336  MEMB      85              0.0000000000
     12134       113  DOPC      C32             9.2600067645      -18.5778484374      -12.4987241746  MEMB      85              0.0000000000
     12135       113  DOPC      H2X             8.4370297180      -18.9671627064      -11.8626346725  MEMB      85              0.0000000000
     12136       113  DOPC      H2Y             9.8665981038      -19.4411724518      -12.8428400696  MEMB      85              0.0000000000
     12137       113  DOPC      C23             7.3337695326      -23.2813126390      -13.2157212380  MEMB      85              0.0000000000
     12138       113  DOPC      H3R             8.0021701654      -22.6389972397      -12.5968937232  MEMB      85              0.0000000000
     12139       113  DOPC      H3S             7.9878361210      -23.9397162544      -13.8279805930  MEMB      85              0.0000000000
     12140       113  DOPC      C24             6.4814501773      -24.1673277925      -12.3046427713  MEMB      85              0.0000000000
     12141       113  DOPC      H4R             7.1343175952      -24.8897157055      -11.7630984065  MEMB      85              0.0000000000
     12142       113  DOPC      H4S             5.7819660010      -24.7567375316      -12.9369953905  MEMB      85              0.0000000000
     12143       113  DOPC      C25             5.6858590732      -23.3474873775      -11.2848730007  MEMB      85              0.0000000000
     12144       113  DOPC      H5R             4.9010846472      -24.0065806500      -10.8503855853  MEMB      85              0.0000000000
     12145       113  DOPC      H5S             5.1445987885      -22.5039459708      -11.7650030588  MEMB      85              0.0000000000
     12146       113  DOPC      C26             6.5833193244      -22.8000626520      -10.1653619242  MEMB      85              0.0000000000
     12147       113  DOPC      H6R             6.8794212214      -21.7548258362      -10.4052770567  MEMB      85              0.0000000000
     12148       113  DOPC      H6S             7.5192544779      -23.4013882985      -10.1051449164  MEMB      85              0.0000000000
     12149       113  DOPC      C27             5.8906859050      -22.8746306188       -8.8029037471  MEMB      85              0.0000000000
     12150       113  DOPC      H7R             4.8813383959      -22.4139985553       -8.9011239098  MEMB      85              0.0000000000
     12151       113  DOPC      H7S             6.4569489563      -22.2668559040       -8.0615524623  MEMB      85              0.0000000000
     12152       113  DOPC      C28             5.7307904266      -24.3330773576       -8.3220316716  MEMB      85              0.0000000000
     12153       113  DOPC      H8R             5.8092607937      -25.0246797628       -9.1887342818  MEMB      85              0.0000000000
     12154       113  DOPC      H8S             4.6949332394      -24.4559677708       -7.9335030033  MEMB      85              0.0000000000
     12155       113  DOPC      C29             6.7440187923      -24.7293099668       -7.2833047968  MEMB      85              0.0000000000
     12156       113  DOPC      H9R             7.6885150255      -25.1448806598       -7.6674280841  MEMB      85              0.0000000000
     12157       113  DOPC      C210            6.6204304376      -24.4910893552       -5.9689940071  MEMB      85              0.0000000000
     12158       113  DOPC      H10R            7.4496249563      -24.7597942399       -5.2967164076  MEMB      85              0.0000000000
     12159       113  DOPC      C211            5.4673841355      -23.7873775727       -5.2929262573  MEMB      85              0.0000000000
     12160       113  DOPC      H11R            5.0735704881      -24.3887220252       -4.4438308738  MEMB      85              0.0000000000
     12161       113  DOPC      H11S            4.6147890975      -23.5605479402       -5.9715649381  MEMB      85              0.0000000000
     12162       113  DOPC      C212            6.0649490331      -22.4782870351       -4.7650412057  MEMB      85              0.0000000000
     12163       113  DOPC      H12R            6.5235246985      -21.8880732116       -5.5933217877  MEMB      85              0.0000000000
     12164       113  DOPC      H12S            6.8846228293      -22.7562755711       -4.0661325310  MEMB      85              0.0000000000
     12165       113  DOPC      C213            5.0975790819      -21.5475100500       -4.0289595772  MEMB      85              0.0000000000
     12166       113  DOPC      H13R            4.4754597136      -22.1107508448       -3.3017454678  MEMB      85              0.0000000000
     12167       113  DOPC      H13S            4.4101055030      -21.0697663271       -4.7641039145  MEMB      85              0.0000000000
     12168       113  DOPC      C214            5.8877330772      -20.4469136036       -3.3113091907  MEMB      85              0.0000000000
     12169       113  DOPC      H14R            5.1913532840      -19.7396939627       -2.8076983410  MEMB      85              0.0000000000
     12170       113  DOPC      H14S            6.4665546355      -19.8985767782       -4.0892800572  MEMB      85              0.0000000000
     12171       113  DOPC      C215            6.9259614317      -20.9291315761       -2.2981379554  MEMB      85              0.0000000000
     12172       113  DOPC      H15R            7.2923762259      -20.0468836263       -1.7310636817  MEMB      85              0.0000000000
     12173       113  DOPC      H15S            7.8109771734      -21.3452855281       -2.8257312445  MEMB      85              0.0000000000
     12174       113  DOPC      C216            6.4120886606      -21.9858471148       -1.3304808108  MEMB      85              0.0000000000
     12175       113  DOPC      H16R            6.3001741572      -22.9709112993       -1.8365085382  MEMB      85              0.0000000000
     12176       113  DOPC      H16S            5.4014715935      -21.7193275194       -0.9652390096  MEMB      85              0.0000000000
     12177       113  DOPC      C217            7.3919951000      -22.1184101487       -0.1751406466  MEMB      85              0.0000000000
     12178       113  DOPC      H17R            6.8119707419      -22.5134858594        0.6803646119  MEMB      85              0.0000000000
     12179       113  DOPC      H17S            7.7517400543      -21.1177765459        0.1559098864  MEMB      85              0.0000000000
     12180       113  DOPC      C218            8.5795899888      -23.0123889991       -0.5621821195  MEMB      85              0.0000000000
     12181       113  DOPC      H18R            9.2282777124      -22.4940070697       -1.3027320917  MEMB      85              0.0000000000
     12182       113  DOPC      H18S            8.2257792738      -23.9615575966       -1.0214635591  MEMB      85              0.0000000000
     12183       113  DOPC      H18T            9.1987647255      -23.2599126354        0.3247479883  MEMB      85              0.0000000000
     12184       113  DOPC      C33            10.1437960018      -17.6109280293      -11.6879800445  MEMB      85              0.0000000000
     12185       113  DOPC      H3X             9.5104644890      -16.8242118787      -11.2188490492  MEMB      85              0.0000000000
     12186       113  DOPC      H3Y            10.8476908226      -17.0993491481      -12.3872287694  MEMB      85              0.0000000000
     12187       113  DOPC      C34            10.9844623750      -18.3156509438      -10.6089776218  MEMB      85              0.0000000000
     12188       113  DOPC      H4X            11.5922554519      -17.5346238652      -10.0962659179  MEMB      85              0.0000000000
     12189       113  DOPC      H4Y            11.6947006028      -19.0218030230      -11.0950341057  MEMB      85              0.0000000000
     12190       113  DOPC      C35            10.1807981233      -19.0836020703       -9.5424713786  MEMB      85              0.0000000000
     12191       113  DOPC      H5X             9.7810683169      -20.0249938607       -9.9785790967  MEMB      85              0.0000000000
     12192       113  DOPC      H5Y             9.3168397543      -18.4614577391       -9.2173605098  MEMB      85              0.0000000000
     12193       113  DOPC      C36            11.0617277370      -19.3927774069       -8.3214436058  MEMB      85              0.0000000000
     12194       113  DOPC      H6X            11.9954090435      -19.8955278466       -8.6596745225  MEMB      85              0.0000000000
     12195       113  DOPC      H6Y            11.3526695403      -18.4154548793       -7.8707400069  MEMB      85              0.0000000000
     12196       113  DOPC      C37            10.4193936503      -20.2501213935       -7.2184558082  MEMB      85              0.0000000000
     12197       113  DOPC      H7X             9.4435503517      -19.8030235834       -6.9288253459  MEMB      85              0.0000000000
     12198       113  DOPC      H7Y            10.2227809024      -21.2769869008       -7.5984240957  MEMB      85              0.0000000000
     12199       113  DOPC      C38            11.3567434437      -20.3042122907       -5.9945746321  MEMB      85              0.0000000000
     12200       113  DOPC      H8X            11.7261150162      -19.2724083939       -5.8192637562  MEMB      85              0.0000000000
     12201       113  DOPC      H8Y            12.2575574159      -20.8922206245       -6.2901307465  MEMB      85              0.0000000000
     12202       113  DOPC      C39            10.7626037381      -20.8698481934       -4.7280308705  MEMB      85              0.0000000000
     12203       113  DOPC      H9X            10.5513624482      -21.9471075401       -4.7680101283  MEMB      85              0.0000000000
     12204       113  DOPC      C310           10.4556194704      -20.2289959685       -3.5902057848  MEMB      85              0.0000000000
     12205       113  DOPC      H10X           10.0859335705      -20.8156403271       -2.7341100378  MEMB      85              0.0000000000
     12206       113  DOPC      C311           10.6300985811      -18.7602683040       -3.3222640735  MEMB      85              0.0000000000
     12207       113  DOPC      H11X           11.3050237187      -18.2820766565       -4.0610777395  MEMB      85              0.0000000000
     12208       113  DOPC      H11Y           11.0765518790      -18.5972390300       -2.3179289884  MEMB      85              0.0000000000
     12209       113  DOPC      C312            9.2711493030      -18.0385434230       -3.3911825916  MEMB      85              0.0000000000
     12210       113  DOPC      H12X            9.4191686998      -16.9780637980       -3.0976512485  MEMB      85              0.0000000000
     12211       113  DOPC      H12Y            8.5851648431      -18.5035567913       -2.6527174420  MEMB      85              0.0000000000
     12212       113  DOPC      C313            8.6468629392      -18.0705270009       -4.7984587756  MEMB      85              0.0000000000
     12213       113  DOPC      H13X            9.4518461574      -17.7659712872       -5.5093215154  MEMB      85              0.0000000000
     12214       113  DOPC      H13Y            8.3679107002      -19.1172802610       -5.0429736480  MEMB      85              0.0000000000
     12215       113  DOPC      C314            7.4554978972      -17.1309213227       -5.0778780032  MEMB      85              0.0000000000
     12216       113  DOPC      H14X            7.8332374461      -16.0840734268       -5.0590833510  MEMB      85              0.0000000000
     12217       113  DOPC      H14Y            7.1042426558      -17.3273008387       -6.1171773728  MEMB      85              0.0000000000
     12218       113  DOPC      C315            6.2336104523      -17.1752895519       -4.1441278960  MEMB      85              0.0000000000
     12219       113  DOPC      H15X            5.6261819785      -18.0917462419       -4.2149868451  MEMB      85              0.0000000000
     12220       113  DOPC      H15Y            5.5688785525      -16.3884627703       -4.5192889640  MEMB      85              0.0000000000
     12221       113  DOPC      C316            6.5279179689      -16.7679026594       -2.7042932787  MEMB      85              0.0000000000
     12222       113  DOPC      H16X            6.7835158829      -17.6576332661       -2.1039965674  MEMB      85              0.0000000000
     12223       113  DOPC      H16Y            7.4300520276      -16.1257983910       -2.7348895150  MEMB      85              0.0000000000
     12224       113  DOPC      C317            5.4097416179      -15.9451066540       -2.0632221201  MEMB      85              0.0000000000
     12225       113  DOPC      H17X            5.1562581963      -15.1311193728       -2.7708609357  MEMB      85              0.0000000000
     12226       113  DOPC      H17Y            4.4964010642      -16.5680232207       -1.9340260187  MEMB      85              0.0000000000
     12227       113  DOPC      C318            5.8173484218      -15.2976502337       -0.7410616985  MEMB      85              0.0000000000
     12228       113  DOPC      H18X            6.8955734537      -15.4749243328       -0.5404194718  MEMB      85              0.0000000000
     12229       113  DOPC      H18Y            5.6426125482      -14.2023762359       -0.7740824469  MEMB      85              0.0000000000
     12230       113  DOPC      H18Z            5.2331095555      -15.7160634248        0.1016934032  MEMB      85              0.0000000000
     12231       114  DOPC      N             -18.6488348503      -11.0790096976      -19.0178987426  MEMB      86              0.0000000000
     12232       114  DOPC      C12           -18.3360476134      -12.5150274560      -18.5856817235  MEMB      86              0.0000000000
     12233       114  DOPC      H12A          -17.8186117725      -12.5315323244      -17.6366946242  MEMB      86              0.0000000000
     12234       114  DOPC      H12B          -17.6709489077      -12.9592972268      -19.3229467954  MEMB      86              0.0000000000
     12235       114  DOPC      C13           -17.4389559272      -10.1949864405      -18.9313947578  MEMB      86              0.0000000000
     12236       114  DOPC      H13A          -17.2509270549       -9.8627868069      -17.9186337256  MEMB      86              0.0000000000
     12237       114  DOPC      H13B          -16.5566921675      -10.7170391967      -19.2887702514  MEMB      86              0.0000000000
     12238       114  DOPC      H13C          -17.5566403151       -9.3059445408      -19.5512432717  MEMB      86              0.0000000000
     12239       114  DOPC      C14           -19.7702652616      -10.5031501183      -18.2088456199  MEMB      86              0.0000000000
     12240       114  DOPC      H14A          -20.6842910320      -11.0700537674      -18.3882510246  MEMB      86              0.0000000000
     12241       114  DOPC      H14B          -19.5449584143      -10.5125353944      -17.1516836728  MEMB      86              0.0000000000
     12242       114  DOPC      H14C          -19.9591430818       -9.4752656921      -18.5037325659  MEMB      86              0.0000000000
     12243       114  DOPC      C15           -19.1157719593      -11.0838416733      -20.4426575521  MEMB      86              0.0000000000
     12244       114  DOPC      H15A          -19.9236197718      -11.8078525529      -20.5705523945  MEMB      86              0.0000000000
     12245       114  DOPC      H15B          -18.3272524565      -11.3895155278      -21.1294938514  MEMB      86              0.0000000000
     12246       114  DOPC      H15C          -19.4764656828      -10.1119385168      -20.7587963523  MEMB      86              0.0000000000
     12247       114  DOPC      C11           -19.4919855056      -13.5347694826      -18.4703207654  MEMB      86              0.0000000000
     12248       114  DOPC      H11A          -19.0434539062      -14.4568559357      -18.0181519371  MEMB      86              0.0000000000
     12249       114  DOPC      H11B          -20.3018413590      -13.1765152886      -17.7999865261  MEMB      86              0.0000000000
     12250       114  DOPC      P             -20.9095215438      -15.0700058121      -20.0137881586  MEMB      86              0.0000000000
     12251       114  DOPC      O13           -20.8815589142      -15.3818070093      -21.4546734697  MEMB      86              0.0000000000
     12252       114  DOPC      O14           -22.2456085516      -14.8680320465      -19.4017519973  MEMB      86              0.0000000000
     12253       114  DOPC      O12           -20.0101676068      -13.7951232232      -19.7597457753  MEMB      86              0.0000000000
     12254       114  DOPC      O11           -20.1204512090      -16.2220353602      -19.2970077357  MEMB      86              0.0000000000
     12255       114  DOPC      C1            -20.6865889803      -17.3074407278      -18.5753879526  MEMB      86              0.0000000000
     12256       114  DOPC      HA            -20.0797817745      -18.2185139562      -18.7789187229  MEMB      86              0.0000000000
     12257       114  DOPC      HB            -21.7353903439      -17.5236279919      -18.8868275339  MEMB      86              0.0000000000
     12258       114  DOPC      C2            -20.6280724330      -17.0605693181      -17.0461887621  MEMB      86              0.0000000000
     12259       114  DOPC      HS            -21.1928418087      -17.8644775272      -16.5220681189  MEMB      86              0.0000000000
     12260       114  DOPC      O21           -21.1574850622      -15.7853577249      -16.7135158883  MEMB      86              0.0000000000
     12261       114  DOPC      C21           -22.4466960946      -15.6166928438      -16.6656114099  MEMB      86              0.0000000000
     12262       114  DOPC      O22           -23.3176841503      -16.4243438973      -16.9623615354  MEMB      86              0.0000000000
     12263       114  DOPC      C22           -22.6334208568      -14.2062923804      -16.0398926516  MEMB      86              0.0000000000
     12264       114  DOPC      H2R           -22.9466204327      -13.5187940241      -16.8476992472  MEMB      86              0.0000000000
     12265       114  DOPC      H2S           -21.6452729099      -13.8564499511      -15.6680862991  MEMB      86              0.0000000000
     12266       114  DOPC      C3            -19.1783874776      -17.0697550546      -16.4877252174  MEMB      86              0.0000000000
     12267       114  DOPC      HX            -18.5209853647      -16.4311776260      -17.1196305727  MEMB      86              0.0000000000
     12268       114  DOPC      HY            -18.8117862977      -18.1176532432      -16.5658340186  MEMB      86              0.0000000000
     12269       114  DOPC      O31           -19.1962215787      -16.6653977035      -15.1018936134  MEMB      86              0.0000000000
     12270       114  DOPC      C31           -18.8013589132      -15.4537989000      -14.7643433663  MEMB      86              0.0000000000
     12271       114  DOPC      O32           -18.1553722726      -14.6752947946      -15.4393128141  MEMB      86              0.0000000000
     12272       114  DOPC      C32           -19.3613455963      -15.1279512949      -13.3800372891  MEMB      86              0.0000000000
     12273       114  DOPC      H2X           -18.6244438867      -15.5011746229      -12.6415287067  MEMB      86              0.0000000000
     12274       114  DOPC      H2Y           -19.4153956908      -14.0234140968      -13.2729933403  MEMB      86              0.0000000000
     12275       114  DOPC      C23           -23.6142691420      -14.1849489784      -14.8468158802  MEMB      86              0.0000000000
     12276       114  DOPC      H3R           -23.3411200930      -14.9716374503      -14.1137660446  MEMB      86              0.0000000000
     12277       114  DOPC      H3S           -24.6106350590      -14.4554483973      -15.2615608987  MEMB      86              0.0000000000
     12278       114  DOPC      C24           -23.7630988462      -12.8448430547      -14.0841279808  MEMB      86              0.0000000000
     12279       114  DOPC      H4R           -24.5940650581      -12.9598454350      -13.3511172837  MEMB      86              0.0000000000
     12280       114  DOPC      H4S           -24.0845569594      -12.0839090751      -14.8264364534  MEMB      86              0.0000000000
     12281       114  DOPC      C25           -22.5464394305      -12.2614441817      -13.3206846352  MEMB      86              0.0000000000
     12282       114  DOPC      H5R           -22.6888759424      -11.1532430741      -13.2927553539  MEMB      86              0.0000000000
     12283       114  DOPC      H5S           -21.6007268707      -12.4557252949      -13.8665002567  MEMB      86              0.0000000000
     12284       114  DOPC      C26           -22.4002944723      -12.6952690831      -11.8425380173  MEMB      86              0.0000000000
     12285       114  DOPC      H6R           -21.9106235569      -13.6762296102      -11.8070985469  MEMB      86              0.0000000000
     12286       114  DOPC      H6S           -23.4003616129      -12.7839797278      -11.3662771173  MEMB      86              0.0000000000
     12287       114  DOPC      C27           -21.5039059369      -11.7660731511      -10.9969025411  MEMB      86              0.0000000000
     12288       114  DOPC      H7R           -21.9582424424      -10.7509135220      -11.0245609238  MEMB      86              0.0000000000
     12289       114  DOPC      H7S           -20.4995525369      -11.6994077733      -11.4686498617  MEMB      86              0.0000000000
     12290       114  DOPC      C28           -21.3507811633      -12.1800442660       -9.5082713147  MEMB      86              0.0000000000
     12291       114  DOPC      H8R           -22.3719207918      -12.3236440679       -9.0902363848  MEMB      86              0.0000000000
     12292       114  DOPC      H8S           -20.9059407743      -11.3163629408       -8.9675973260  MEMB      86              0.0000000000
     12293       114  DOPC      C29           -20.5404161235      -13.4332011827       -9.2738921639  MEMB      86              0.0000000000
     12294       114  DOPC      H9R           -20.7859787178      -14.2511622914       -9.9604881517  MEMB      86              0.0000000000
     12295       114  DOPC      C210          -19.6032042827      -13.6627067636       -8.3309551487  MEMB      86              0.0000000000
     12296       114  DOPC      H10R          -19.1287935491      -14.6577954994       -8.2938720028  MEMB      86              0.0000000000
     12297       114  DOPC      C211          -19.1263137693      -12.7089722781       -7.2634187588  MEMB      86              0.0000000000
     12298       114  DOPC      H11R          -19.3808663934      -11.6533494792       -7.5038169554  MEMB      86              0.0000000000
     12299       114  DOPC      H11S          -18.0191700849      -12.7477272003       -7.2149040732  MEMB      86              0.0000000000
     12300       114  DOPC      C212          -19.6807563407      -13.0316114543       -5.8581913691  MEMB      86              0.0000000000
     12301       114  DOPC      H12R          -19.2285159735      -12.3162361624       -5.1358567580  MEMB      86              0.0000000000
     12302       114  DOPC      H12S          -19.3658884055      -14.0549894839       -5.5503437276  MEMB      86              0.0000000000
     12303       114  DOPC      C213          -21.2155713261      -12.9307941834       -5.7878316246  MEMB      86              0.0000000000
     12304       114  DOPC      H13R          -21.6400461017      -13.8788231497       -6.1894466013  MEMB      86              0.0000000000
     12305       114  DOPC      H13S          -21.5494653004      -12.1081922530       -6.4591770587  MEMB      86              0.0000000000
     12306       114  DOPC      C214          -21.8100550925      -12.6891433437       -4.3870403816  MEMB      86              0.0000000000
     12307       114  DOPC      H14R          -22.9142752420      -12.7959438627       -4.4545271832  MEMB      86              0.0000000000
     12308       114  DOPC      H14S          -21.6325650826      -11.6535309774       -4.0690613309  MEMB      86              0.0000000000
     12309       114  DOPC      C215          -21.2514856258      -13.6110988753       -3.2981148156  MEMB      86              0.0000000000
     12310       114  DOPC      H15R          -20.2256837807      -13.2869753457       -3.0129903956  MEMB      86              0.0000000000
     12311       114  DOPC      H15S          -21.1628910961      -14.6111297817       -3.7652066537  MEMB      86              0.0000000000
     12312       114  DOPC      C216          -22.1339896565      -13.6995345575       -2.0371051593  MEMB      86              0.0000000000
     12313       114  DOPC      H16R          -23.1517958776      -14.0420408946       -2.3330125424  MEMB      86              0.0000000000
     12314       114  DOPC      H16S          -22.2305498176      -12.6867310715       -1.5853980196  MEMB      86              0.0000000000
     12315       114  DOPC      C217          -21.5789577175      -14.6708327650       -0.9801134191  MEMB      86              0.0000000000
     12316       114  DOPC      H17R          -22.1900252299      -14.6114323694       -0.0522597989  MEMB      86              0.0000000000
     12317       114  DOPC      H17S          -20.5430995415      -14.3526107730       -0.7200783700  MEMB      86              0.0000000000
     12318       114  DOPC      C218          -21.5557266081      -16.1165921167       -1.4705363812  MEMB      86              0.0000000000
     12319       114  DOPC      H18R          -20.9566413905      -16.7871369934       -0.8309554201  MEMB      86              0.0000000000
     12320       114  DOPC      H18S          -21.0717193006      -16.1437776336       -2.4586735901  MEMB      86              0.0000000000
     12321       114  DOPC      H18T          -22.5852499460      -16.5232502094       -1.5670284258  MEMB      86              0.0000000000
     12322       114  DOPC      C33           -20.7623835926      -15.7419928135      -13.1134122184  MEMB      86              0.0000000000
     12323       114  DOPC      H3X           -21.0753560043      -16.5015819461      -13.8614098634  MEMB      86              0.0000000000
     12324       114  DOPC      H3Y           -21.5066790208      -14.9355125984      -13.2077212728  MEMB      86              0.0000000000
     12325       114  DOPC      C34           -20.8391401401      -16.3945035171      -11.7367763333  MEMB      86              0.0000000000
     12326       114  DOPC      H4X           -20.0929332423      -15.9150909887      -11.0629366216  MEMB      86              0.0000000000
     12327       114  DOPC      H4Y           -20.5966999159      -17.4775594179      -11.8560694698  MEMB      86              0.0000000000
     12328       114  DOPC      C35           -22.1809403687      -16.3404484887      -11.0355894858  MEMB      86              0.0000000000
     12329       114  DOPC      H5X           -22.8860258159      -16.9791794255      -11.5929518006  MEMB      86              0.0000000000
     12330       114  DOPC      H5Y           -22.6056150003      -15.3181946200      -11.0100784404  MEMB      86              0.0000000000
     12331       114  DOPC      C36           -22.0644994775      -16.8199531505       -9.5889987104  MEMB      86              0.0000000000
     12332       114  DOPC      H6X           -21.3916153515      -17.6955631822       -9.4829953069  MEMB      86              0.0000000000
     12333       114  DOPC      H6Y           -21.6062308910      -15.9885992341       -9.0085507624  MEMB      86              0.0000000000
     12334       114  DOPC      C37           -23.4442986917      -17.1364744081       -9.0292764188  MEMB      86              0.0000000000
     12335       114  DOPC      H7X           -24.1706116446      -16.5970598802       -9.6797399196  MEMB      86              0.0000000000
     12336       114  DOPC      H7Y           -23.6680235587      -18.2231322779       -9.1243776842  MEMB      86              0.0000000000
     12337       114  DOPC      C38           -23.6232588252      -16.5934473038       -7.6090975040  MEMB      86              0.0000000000
     12338       114  DOPC      H8X           -24.4887661937      -15.8954787497       -7.6280407723  MEMB      86              0.0000000000
     12339       114  DOPC      H8Y           -22.7508253611      -15.9583703708       -7.3401633029  MEMB      86              0.0000000000
     12340       114  DOPC      C39           -23.8488485541      -17.6785330905       -6.5944197694  MEMB      86              0.0000000000
     12341       114  DOPC      H9X           -24.6284965262      -18.4127551089       -6.8469862831  MEMB      86              0.0000000000
     12342       114  DOPC      C310          -23.1952264545      -17.7989134877       -5.4348367272  MEMB      86              0.0000000000
     12343       114  DOPC      H10X          -23.4901894445      -18.5812909135       -4.7191639041  MEMB      86              0.0000000000
     12344       114  DOPC      C311          -22.1234575459      -16.8754734988       -4.9493064328  MEMB      86              0.0000000000
     12345       114  DOPC      H11X          -22.0678702785      -17.0183810042       -3.8585931963  MEMB      86              0.0000000000
     12346       114  DOPC      H11Y          -22.3898214588      -15.8101531225       -5.1221015752  MEMB      86              0.0000000000
     12347       114  DOPC      C312          -20.7421868279      -17.1854965299       -5.5594131709  MEMB      86              0.0000000000
     12348       114  DOPC      H12X          -20.0413951780      -16.3758106355       -5.2625988909  MEMB      86              0.0000000000
     12349       114  DOPC      H12Y          -20.7962096765      -17.1792523025       -6.6703499937  MEMB      86              0.0000000000
     12350       114  DOPC      C313          -20.2281610054      -18.5472098361       -5.0671739882  MEMB      86              0.0000000000
     12351       114  DOPC      H13X          -20.5547332755      -18.6781375716       -4.0122607837  MEMB      86              0.0000000000
     12352       114  DOPC      H13Y          -20.7411508891      -19.3336402485       -5.6521285335  MEMB      86              0.0000000000
     12353       114  DOPC      C314          -18.7123353327      -18.7815453436       -5.1109206915  MEMB      86              0.0000000000
     12354       114  DOPC      H14X          -18.5070204156      -19.7361634700       -4.5763976619  MEMB      86              0.0000000000
     12355       114  DOPC      H14Y          -18.3620645654      -18.8930172447       -6.1603650300  MEMB      86              0.0000000000
     12356       114  DOPC      C315          -17.8732664736      -17.7191798697       -4.4081023984  MEMB      86              0.0000000000
     12357       114  DOPC      H15X          -17.8540989521      -16.8019527364       -5.0401179750  MEMB      86              0.0000000000
     12358       114  DOPC      H15Y          -16.8311539948      -18.1050842195       -4.3230101565  MEMB      86              0.0000000000
     12359       114  DOPC      C316          -18.3657534726      -17.3275360592       -3.0110478307  MEMB      86              0.0000000000
     12360       114  DOPC      H16X          -17.6312179289      -16.6091150551       -2.5865079886  MEMB      86              0.0000000000
     12361       114  DOPC      H16Y          -19.3192004750      -16.7766201004       -3.1147685395  MEMB      86              0.0000000000
     12362       114  DOPC      C317          -18.5566413563      -18.4924235572       -2.0308002024  MEMB      86              0.0000000000
     12363       114  DOPC      H17X          -19.5687094378      -18.9413410526       -2.1562277293  MEMB      86              0.0000000000
     12364       114  DOPC      H17Y          -17.8298932809      -19.2979592442       -2.2693951888  MEMB      86              0.0000000000
     12365       114  DOPC      C318          -18.3716760714      -18.0540655382       -0.5792689244  MEMB      86              0.0000000000
     12366       114  DOPC      H18X          -19.3390777940      -18.1129852544       -0.0382588707  MEMB      86              0.0000000000
     12367       114  DOPC      H18Y          -17.6284520460      -18.6912860335       -0.0557878108  MEMB      86              0.0000000000
     12368       114  DOPC      H18Z          -18.0237033896      -16.9991630817       -0.5343805461  MEMB      86              0.0000000000
     12369       115  DOPC      N               7.5673535507       23.6363143803      -20.6023006004  MEMB      87              0.0000000000
     12370       115  DOPC      C12             6.2841398628       22.9435194114      -20.1605483553  MEMB      87              0.0000000000
     12371       115  DOPC      H12A            6.0602428982       22.1412381489      -20.8578886087  MEMB      87              0.0000000000
     12372       115  DOPC      H12B            5.4690667507       23.6553397054      -20.2162284665  MEMB      87              0.0000000000
     12373       115  DOPC      C13             7.4485441697       24.2787864470      -21.9410436441  MEMB      87              0.0000000000
     12374       115  DOPC      H13A            8.3694708372       24.8077744361      -22.1685087973  MEMB      87              0.0000000000
     12375       115  DOPC      H13B            7.3025533039       23.5437395628      -22.7228808625  MEMB      87              0.0000000000
     12376       115  DOPC      H13C            6.6795744656       25.0352723167      -21.9564184822  MEMB      87              0.0000000000
     12377       115  DOPC      C14             8.7192121267       22.6742275259      -20.5860919563  MEMB      87              0.0000000000
     12378       115  DOPC      H14A            9.6660023346       23.1744035841      -20.7726615186  MEMB      87              0.0000000000
     12379       115  DOPC      H14B            8.7435127350       22.2222113925      -19.5898001019  MEMB      87              0.0000000000
     12380       115  DOPC      H14C            8.6220025832       21.8573602076      -21.2864958828  MEMB      87              0.0000000000
     12381       115  DOPC      C15             7.9655926545       24.6930260265      -19.6318458757  MEMB      87              0.0000000000
     12382       115  DOPC      H15A            7.8912991854       24.3271100914      -18.6186458980  MEMB      87              0.0000000000
     12383       115  DOPC      H15B            7.3394562894       25.5773007441      -19.7171906116  MEMB      87              0.0000000000
     12384       115  DOPC      H15C            8.9722522489       25.0657098071      -19.8104946159  MEMB      87              0.0000000000
     12385       115  DOPC      C11             6.2716255655       22.2886183658      -18.7476096858  MEMB      87              0.0000000000
     12386       115  DOPC      H11A            6.5288324527       23.0409078505      -17.9713590405  MEMB      87              0.0000000000
     12387       115  DOPC      H11B            5.2252992756       21.9531331491      -18.5438479827  MEMB      87              0.0000000000
     12388       115  DOPC      P               6.9387941250       19.9028453507      -17.8100878605  MEMB      87              0.0000000000
     12389       115  DOPC      O13             8.1860984094       19.1006372259      -17.7830699163  MEMB      87              0.0000000000
     12390       115  DOPC      O14             5.7001444075       19.2523134547      -18.2889281145  MEMB      87              0.0000000000
     12391       115  DOPC      O12             7.1948179556       21.2024827459      -18.6874762421  MEMB      87              0.0000000000
     12392       115  DOPC      O11             6.7113405426       20.5097278241      -16.3750283632  MEMB      87              0.0000000000
     12393       115  DOPC      C1              5.9197571118       19.8037603786      -15.4149826083  MEMB      87              0.0000000000
     12394       115  DOPC      HA              6.3278507356       20.0432790585      -14.4092654301  MEMB      87              0.0000000000
     12395       115  DOPC      HB              5.9837645544       18.6935827577      -15.5270827596  MEMB      87              0.0000000000
     12396       115  DOPC      C2              4.4216938915       20.2347833002      -15.4330235220  MEMB      87              0.0000000000
     12397       115  DOPC      HS              3.9113561988       19.6370836917      -16.2204716796  MEMB      87              0.0000000000
     12398       115  DOPC      O21             4.3628663412       21.6311128891      -15.7797861642  MEMB      87              0.0000000000
     12399       115  DOPC      C21             3.3247433361       22.3664584409      -15.5095079323  MEMB      87              0.0000000000
     12400       115  DOPC      O22             2.2016558252       22.0014828214      -15.2239216451  MEMB      87              0.0000000000
     12401       115  DOPC      C22             3.7384047284       23.8286953965      -15.6431406258  MEMB      87              0.0000000000
     12402       115  DOPC      H2R             2.8429937844       24.4513422323      -15.4511523759  MEMB      87              0.0000000000
     12403       115  DOPC      H2S             4.1011196469       24.0059462175      -16.6751084812  MEMB      87              0.0000000000
     12404       115  DOPC      C3              3.7722049560       19.9216896150      -14.0479242324  MEMB      87              0.0000000000
     12405       115  DOPC      HX              3.9899096453       18.8446299480      -13.8535754279  MEMB      87              0.0000000000
     12406       115  DOPC      HY              2.6672589831       20.0221938423      -14.1102478524  MEMB      87              0.0000000000
     12407       115  DOPC      O31             4.2825138351       20.7720229802      -12.9909140450  MEMB      87              0.0000000000
     12408       115  DOPC      C31             3.9084818450       20.3272525438      -11.7881124669  MEMB      87              0.0000000000
     12409       115  DOPC      O32             3.4107861432       19.2385802361      -11.5683904408  MEMB      87              0.0000000000
     12410       115  DOPC      C32             4.1273048265       21.3835447203      -10.7201250510  MEMB      87              0.0000000000
     12411       115  DOPC      H2X             4.4136865612       20.8720204097       -9.7777456887  MEMB      87              0.0000000000
     12412       115  DOPC      H2Y             4.9691598496       22.0267129273      -11.0421743180  MEMB      87              0.0000000000
     12413       115  DOPC      C23             4.8493292750       24.1211000501      -14.6199730184  MEMB      87              0.0000000000
     12414       115  DOPC      H3R             4.6956135088       23.4630562901      -13.7323049895  MEMB      87              0.0000000000
     12415       115  DOPC      H3S             4.7854356527       25.1560468979      -14.2336097762  MEMB      87              0.0000000000
     12416       115  DOPC      C24             6.2371428039       23.9146901643      -15.2414992287  MEMB      87              0.0000000000
     12417       115  DOPC      H4R             6.4252878216       24.6650593256      -16.0377285174  MEMB      87              0.0000000000
     12418       115  DOPC      H4S             6.2735895946       22.9098795718      -15.7240408850  MEMB      87              0.0000000000
     12419       115  DOPC      C25             7.3872534965       23.9279442566      -14.2365770377  MEMB      87              0.0000000000
     12420       115  DOPC      H5R             7.6800746908       24.9705131180      -13.9885385130  MEMB      87              0.0000000000
     12421       115  DOPC      H5S             8.2434920842       23.4138472452      -14.7333581059  MEMB      87              0.0000000000
     12422       115  DOPC      C26             7.0748880811       23.1736853343      -12.9471927677  MEMB      87              0.0000000000
     12423       115  DOPC      H6R             6.6628877899       22.1890112076      -13.2673728094  MEMB      87              0.0000000000
     12424       115  DOPC      H6S             6.2842849836       23.6956383733      -12.3652790286  MEMB      87              0.0000000000
     12425       115  DOPC      C27             8.3011054039       23.0072881749      -12.0407426884  MEMB      87              0.0000000000
     12426       115  DOPC      H7R             8.6040003593       24.0040244044      -11.6448400889  MEMB      87              0.0000000000
     12427       115  DOPC      H7S             9.1399720917       22.6256671465      -12.6531781834  MEMB      87              0.0000000000
     12428       115  DOPC      C28             8.0660487070       22.0309693395      -10.8859663599  MEMB      87              0.0000000000
     12429       115  DOPC      H8R             7.3034301731       22.4876958877      -10.2132525656  MEMB      87              0.0000000000
     12430       115  DOPC      H8S             9.0037330149       21.9124789986      -10.3014144709  MEMB      87              0.0000000000
     12431       115  DOPC      C29             7.6041855569       20.7046731610      -11.4395733995  MEMB      87              0.0000000000
     12432       115  DOPC      H9R             7.7938873384       20.5326383915      -12.5109637781  MEMB      87              0.0000000000
     12433       115  DOPC      C210            7.0607976498       19.7255866121      -10.7121748019  MEMB      87              0.0000000000
     12434       115  DOPC      H10R            6.7362206208       18.7862145659      -11.1896881613  MEMB      87              0.0000000000
     12435       115  DOPC      C211            6.8614311042       19.8457270831       -9.2327987398  MEMB      87              0.0000000000
     12436       115  DOPC      H11R            6.0049370629       19.2325068895       -8.8714576383  MEMB      87              0.0000000000
     12437       115  DOPC      H11S            6.6676809900       20.8932034024       -8.9036469650  MEMB      87              0.0000000000
     12438       115  DOPC      C212            8.1748746271       19.3443102723       -8.6318150380  MEMB      87              0.0000000000
     12439       115  DOPC      H12R            9.0729834537       19.8310088641       -9.0838691778  MEMB      87              0.0000000000
     12440       115  DOPC      H12S            8.2555820095       18.2483257306       -8.8268360992  MEMB      87              0.0000000000
     12441       115  DOPC      C213            8.2160605884       19.5993879056       -7.1379982937  MEMB      87              0.0000000000
     12442       115  DOPC      H13R            7.1902531231       19.4361170014       -6.7334418727  MEMB      87              0.0000000000
     12443       115  DOPC      H13S            8.5091458937       20.6501018852       -6.9270002628  MEMB      87              0.0000000000
     12444       115  DOPC      C214            9.1708988406       18.6639249450       -6.4214692930  MEMB      87              0.0000000000
     12445       115  DOPC      H14R           10.1956856680       19.1038707626       -6.4236639527  MEMB      87              0.0000000000
     12446       115  DOPC      H14S            9.2127689208       17.6703190849       -6.9245466933  MEMB      87              0.0000000000
     12447       115  DOPC      C215            8.6889710604       18.4542161610       -5.0056393225  MEMB      87              0.0000000000
     12448       115  DOPC      H15R            7.7502654745       17.8524500638       -5.0028387226  MEMB      87              0.0000000000
     12449       115  DOPC      H15S            8.4487717743       19.4526475522       -4.5694736758  MEMB      87              0.0000000000
     12450       115  DOPC      C216            9.7593384102       17.7816677171       -4.1697569204  MEMB      87              0.0000000000
     12451       115  DOPC      H16R           10.7237511939       18.3273682236       -4.2981399256  MEMB      87              0.0000000000
     12452       115  DOPC      H16S            9.9118661343       16.7277823523       -4.4903148215  MEMB      87              0.0000000000
     12453       115  DOPC      C217            9.3491472529       17.8493890944       -2.7179144012  MEMB      87              0.0000000000
     12454       115  DOPC      H17R            8.3851571942       17.3187614767       -2.5884505335  MEMB      87              0.0000000000
     12455       115  DOPC      H17S            9.1482624845       18.9184026233       -2.4782483358  MEMB      87              0.0000000000
     12456       115  DOPC      C218           10.4073886876       17.3141634237       -1.7684277722  MEMB      87              0.0000000000
     12457       115  DOPC      H18R           10.2420244670       17.6686135494       -0.7314848143  MEMB      87              0.0000000000
     12458       115  DOPC      H18S           11.3780782268       17.7214626247       -2.0834813961  MEMB      87              0.0000000000
     12459       115  DOPC      H18T           10.4608357514       16.2076095844       -1.7705928953  MEMB      87              0.0000000000
     12460       115  DOPC      C33             2.8367067740       22.1952572903      -10.4781814070  MEMB      87              0.0000000000
     12461       115  DOPC      H3X             2.0312505588       21.5332974726      -10.0837963841  MEMB      87              0.0000000000
     12462       115  DOPC      H3Y             2.4870178789       22.6274068012      -11.4450142670  MEMB      87              0.0000000000
     12463       115  DOPC      C34             3.0503313159       23.3574704190       -9.5059693642  MEMB      87              0.0000000000
     12464       115  DOPC      H4X             3.3229208458       22.9549254860       -8.5056220140  MEMB      87              0.0000000000
     12465       115  DOPC      H4Y             2.0925659955       23.9096207186       -9.3879170617  MEMB      87              0.0000000000
     12466       115  DOPC      C35             4.1427041930       24.3153525490       -9.9992453598  MEMB      87              0.0000000000
     12467       115  DOPC      H5X             4.0115952139       24.4992598533      -11.0900941816  MEMB      87              0.0000000000
     12468       115  DOPC      H5Y             5.1307897029       23.8266675870       -9.8639952361  MEMB      87              0.0000000000
     12469       115  DOPC      C36             4.1368911732       25.6655750195       -9.2807184085  MEMB      87              0.0000000000
     12470       115  DOPC      H6X             4.9590343682       26.3024941213       -9.6734604361  MEMB      87              0.0000000000
     12471       115  DOPC      H6Y             3.1767121769       26.1796824678       -9.5156136966  MEMB      87              0.0000000000
     12472       115  DOPC      C37             4.2823047715       25.5527800845       -7.7641119702  MEMB      87              0.0000000000
     12473       115  DOPC      H7X             3.9020224847       26.5033197304       -7.3162679487  MEMB      87              0.0000000000
     12474       115  DOPC      H7Y             3.6556596425       24.7419059916       -7.3424491420  MEMB      87              0.0000000000
     12475       115  DOPC      C38             5.7400984194       25.3946483841       -7.2929238370  MEMB      87              0.0000000000
     12476       115  DOPC      H8X             5.6473488175       25.4984365493       -6.2096851333  MEMB      87              0.0000000000
     12477       115  DOPC      H8Y             6.3004929245       26.2758563848       -7.6674812336  MEMB      87              0.0000000000
     12478       115  DOPC      C39             6.5301607478       24.1503909548       -7.5945804883  MEMB      87              0.0000000000
     12479       115  DOPC      H9X             6.9267666785       24.1311164266       -8.6205268765  MEMB      87              0.0000000000
     12480       115  DOPC      C310            6.8574398210       23.1290114211       -6.7743017717  MEMB      87              0.0000000000
     12481       115  DOPC      H10X            7.4381727168       22.3157017449       -7.2273161384  MEMB      87              0.0000000000
     12482       115  DOPC      C311            6.5393468175       22.9009132501       -5.3062855556  MEMB      87              0.0000000000
     12483       115  DOPC      H11X            5.9520850669       21.9606035839       -5.2164768788  MEMB      87              0.0000000000
     12484       115  DOPC      H11Y            5.9106744967       23.7130604185       -4.8829996690  MEMB      87              0.0000000000
     12485       115  DOPC      C312            7.8080277996       22.7316597146       -4.4300265839  MEMB      87              0.0000000000
     12486       115  DOPC      H12X            8.3630359658       23.6951029802       -4.4042435732  MEMB      87              0.0000000000
     12487       115  DOPC      H12Y            8.4733185647       21.9900679721       -4.9292935975  MEMB      87              0.0000000000
     12488       115  DOPC      C313            7.5716891974       22.2167353214       -2.9809075309  MEMB      87              0.0000000000
     12489       115  DOPC      H13X            6.6160739342       21.6574913943       -2.9205326504  MEMB      87              0.0000000000
     12490       115  DOPC      H13Y            8.3945194091       21.5043780550       -2.7459887089  MEMB      87              0.0000000000
     12491       115  DOPC      C314            7.6153964496       23.3293473960       -1.9158158858  MEMB      87              0.0000000000
     12492       115  DOPC      H14X            8.5171939968       23.9424960235       -2.1440195778  MEMB      87              0.0000000000
     12493       115  DOPC      H14Y            6.6989274665       23.9501105417       -2.0180973189  MEMB      87              0.0000000000
     12494       115  DOPC      C315            7.7231378158       22.9368441419       -0.4379146622  MEMB      87              0.0000000000
     12495       115  DOPC      H15X            8.6646847795       22.3873885432       -0.2751440554  MEMB      87              0.0000000000
     12496       115  DOPC      H15Y            6.8786222876       22.2652129473       -0.1689859745  MEMB      87              0.0000000000
     12497       115  DOPC      C316            7.7354376109       24.1285335172        0.5445015493  MEMB      87              0.0000000000
     12498       115  DOPC      H16X            6.6995884762       24.5165190278        0.6558220388  MEMB      87              0.0000000000
     12499       115  DOPC      H16Y            8.0661130113       23.7602559947        1.5334194215  MEMB      87              0.0000000000
     12500       115  DOPC      C317            8.6657064259       25.3066779082        0.2386445675  MEMB      87              0.0000000000
     12501       115  DOPC      H17X            8.2475298873       25.8494602351       -0.6247664796  MEMB      87              0.0000000000
     12502       115  DOPC      H17Y            8.6253294071       26.0079313747        1.1063013640  MEMB      87              0.0000000000
     12503       115  DOPC      C318           10.1231990305       24.9718440624       -0.0788208360  MEMB      87              0.0000000000
     12504       115  DOPC      H18X           10.7276152404       25.8948091285       -0.1393250047  MEMB      87              0.0000000000
     12505       115  DOPC      H18Y           10.5723316743       24.3364588763        0.7069519560  MEMB      87              0.0000000000
     12506       115  DOPC      H18Z           10.2217648146       24.4804527372       -1.0670582886  MEMB      87              0.0000000000
     12507       116  DOPC      N              15.0797915894       16.3657282869      -20.7050802296  MEMB      88              0.0000000000
     12508       116  DOPC      C12            16.2702950137       17.2234893624      -20.2922034712  MEMB      88              0.0000000000
     12509       116  DOPC      H12A           16.2590401121       18.1599841307      -20.8405853836  MEMB      88              0.0000000000
     12510       116  DOPC      H12B           17.1825173705       16.7020291546      -20.5214961818  MEMB      88              0.0000000000
     12511       116  DOPC      C13            14.9809986365       16.1535181423      -22.1766430992  MEMB      88              0.0000000000
     12512       116  DOPC      H13A           15.9297843659       15.8777630460      -22.6037271395  MEMB      88              0.0000000000
     12513       116  DOPC      H13B           14.2473540317       15.3836940587      -22.3965943706  MEMB      88              0.0000000000
     12514       116  DOPC      H13C           14.6180801011       17.0569199070      -22.6701052914  MEMB      88              0.0000000000
     12515       116  DOPC      C14            13.8088948582       17.0597219774      -20.3163498840  MEMB      88              0.0000000000
     12516       116  DOPC      H14A           12.9289320493       16.5156248525      -20.6237207370  MEMB      88              0.0000000000
     12517       116  DOPC      H14B           13.8246269998       17.2607285603      -19.2487762587  MEMB      88              0.0000000000
     12518       116  DOPC      H14C           13.7547485107       18.0457159678      -20.7783280196  MEMB      88              0.0000000000
     12519       116  DOPC      C15            15.2150572270       15.0497740324      -20.0028720566  MEMB      88              0.0000000000
     12520       116  DOPC      H15A           14.3832550836       14.3922956039      -20.2076810506  MEMB      88              0.0000000000
     12521       116  DOPC      H15B           15.2701978168       15.2107924525      -18.9248939183  MEMB      88              0.0000000000
     12522       116  DOPC      H15C           16.1239059506       14.5372391021      -20.3042825824  MEMB      88              0.0000000000
     12523       116  DOPC      C11            16.3436222012       17.6556354339      -18.8152907327  MEMB      88              0.0000000000
     12524       116  DOPC      H11A           16.0608228759       16.8241666899      -18.1266983871  MEMB      88              0.0000000000
     12525       116  DOPC      H11B           17.3897420443       17.9527771491      -18.5722096078  MEMB      88              0.0000000000
     12526       116  DOPC      P              15.3502975631       19.4005873019      -17.2096682332  MEMB      88              0.0000000000
     12527       116  DOPC      O13            14.3831767944       20.5119414271      -17.2704943772  MEMB      88              0.0000000000
     12528       116  DOPC      O14            16.7023995004       19.6420651250      -16.6354937859  MEMB      88              0.0000000000
     12529       116  DOPC      O12            15.4938068239       18.7827272151      -18.6678960460  MEMB      88              0.0000000000
     12530       116  DOPC      O11            14.6256159998       18.1678740593      -16.4618785362  MEMB      88              0.0000000000
     12531       116  DOPC      C1             13.2657185082       17.8374089588      -16.8264438797  MEMB      88              0.0000000000
     12532       116  DOPC      HA             13.2787480755       17.0982122389      -17.6519008503  MEMB      88              0.0000000000
     12533       116  DOPC      HB             12.7114921921       18.7391520000      -17.1774512091  MEMB      88              0.0000000000
     12534       116  DOPC      C2             12.3232904616       17.2061735293      -15.7211126362  MEMB      88              0.0000000000
     12535       116  DOPC      HS             11.3028797126       17.1929368182      -16.1642724684  MEMB      88              0.0000000000
     12536       116  DOPC      O21            12.3214362498       17.9933595571      -14.5174294768  MEMB      88              0.0000000000
     12537       116  DOPC      C21            11.5434442986       17.5967247640      -13.5195663518  MEMB      88              0.0000000000
     12538       116  DOPC      O22            10.6461640357       16.7742525073      -13.5739960244  MEMB      88              0.0000000000
     12539       116  DOPC      C22            11.9703999244       18.3444045415      -12.2533022635  MEMB      88              0.0000000000
     12540       116  DOPC      H2R            11.4393373739       19.3138576216      -12.2323160495  MEMB      88              0.0000000000
     12541       116  DOPC      H2S            13.0486024481       18.5630859657      -12.3552325166  MEMB      88              0.0000000000
     12542       116  DOPC      C3             12.7043997178       15.7325016308      -15.3785132250  MEMB      88              0.0000000000
     12543       116  DOPC      HX             12.8215792380       15.1532963312      -16.3217043679  MEMB      88              0.0000000000
     12544       116  DOPC      HY             11.8681020664       15.2400409446      -14.8391387050  MEMB      88              0.0000000000
     12545       116  DOPC      O31            13.8526668323       15.6880434379      -14.5212587011  MEMB      88              0.0000000000
     12546       116  DOPC      C31            14.9977325488       15.4284984033      -15.1331920157  MEMB      88              0.0000000000
     12547       116  DOPC      O32            15.1154680477       15.0722660201      -16.2971445743  MEMB      88              0.0000000000
     12548       116  DOPC      C32            16.1137555797       15.4871144862      -14.0941697356  MEMB      88              0.0000000000
     12549       116  DOPC      H2X            15.7025093011       15.2357707676      -13.0984954502  MEMB      88              0.0000000000
     12550       116  DOPC      H2Y            16.7980149210       14.6635684055      -14.3646411378  MEMB      88              0.0000000000
     12551       116  DOPC      C23            11.7234993230       17.5618118126      -10.9410344503  MEMB      88              0.0000000000
     12552       116  DOPC      H3R            12.1430233401       16.5324829133      -11.0102999159  MEMB      88              0.0000000000
     12553       116  DOPC      H3S            10.6255665625       17.4716732994      -10.7795334934  MEMB      88              0.0000000000
     12554       116  DOPC      C24            12.3640213161       18.2671380512       -9.7332752107  MEMB      88              0.0000000000
     12555       116  DOPC      H4R            12.2021248444       19.3646075405       -9.8503288276  MEMB      88              0.0000000000
     12556       116  DOPC      H4S            13.4578402181       18.0926975368       -9.7440092777  MEMB      88              0.0000000000
     12557       116  DOPC      C25            11.7692795205       17.8711669127       -8.3712317256  MEMB      88              0.0000000000
     12558       116  DOPC      H5R            10.6890634020       18.1159244078       -8.4334642250  MEMB      88              0.0000000000
     12559       116  DOPC      H5S            12.2234095474       18.5066110278       -7.5767624718  MEMB      88              0.0000000000
     12560       116  DOPC      C26            11.9092538486       16.3979647193       -7.9485416026  MEMB      88              0.0000000000
     12561       116  DOPC      H6R            11.6736252877       15.7345777273       -8.8077725376  MEMB      88              0.0000000000
     12562       116  DOPC      H6S            11.1629816148       16.1841894928       -7.1497270690  MEMB      88              0.0000000000
     12563       116  DOPC      C27            13.3007422297       16.0760179183       -7.3822687462  MEMB      88              0.0000000000
     12564       116  DOPC      H7R            13.4753437934       16.6361659037       -6.4358554397  MEMB      88              0.0000000000
     12565       116  DOPC      H7S            14.0360790002       16.4703987123       -8.1046394942  MEMB      88              0.0000000000
     12566       116  DOPC      C28            13.5760647052       14.5718527130       -7.1841684969  MEMB      88              0.0000000000
     12567       116  DOPC      H8R            14.6791169200       14.4346272099       -7.1478878946  MEMB      88              0.0000000000
     12568       116  DOPC      H8S            13.2093351339       14.0129837196       -8.0755131815  MEMB      88              0.0000000000
     12569       116  DOPC      C29            12.9192238935       14.0714113919       -5.9223589956  MEMB      88              0.0000000000
     12570       116  DOPC      H9R            11.8936259430       14.4433443179       -5.7704299503  MEMB      88              0.0000000000
     12571       116  DOPC      C210           13.4455479614       13.2464442541       -4.9964152178  MEMB      88              0.0000000000
     12572       116  DOPC      H10R           12.8188748848       12.9779007188       -4.1305303574  MEMB      88              0.0000000000
     12573       116  DOPC      C211           14.8182070004       12.6137440408       -4.9926340666  MEMB      88              0.0000000000
     12574       116  DOPC      H11R           15.4212261305       12.8847969459       -5.8872804542  MEMB      88              0.0000000000
     12575       116  DOPC      H11S           14.6862075012       11.5085045798       -5.0383832137  MEMB      88              0.0000000000
     12576       116  DOPC      C212           15.6609426046       12.9113536069       -3.7315778660  MEMB      88              0.0000000000
     12577       116  DOPC      H12R           16.4252878627       12.1031811062       -3.6395748545  MEMB      88              0.0000000000
     12578       116  DOPC      H12S           15.0296624467       12.8697363251       -2.8177241369  MEMB      88              0.0000000000
     12579       116  DOPC      C213           16.4255498109       14.2444215964       -3.7798268612  MEMB      88              0.0000000000
     12580       116  DOPC      H13R           15.7176432053       15.0892479191       -3.9222029145  MEMB      88              0.0000000000
     12581       116  DOPC      H13S           17.1010761105       14.2154639672       -4.6657062253  MEMB      88              0.0000000000
     12582       116  DOPC      C214           17.2817760430       14.4819887158       -2.5205580685  MEMB      88              0.0000000000
     12583       116  DOPC      H14R           17.7688410219       13.5142602520       -2.2624532860  MEMB      88              0.0000000000
     12584       116  DOPC      H14S           16.6356142184       14.7681348339       -1.6624946871  MEMB      88              0.0000000000
     12585       116  DOPC      C215           18.3977718514       15.5220872591       -2.7232836009  MEMB      88              0.0000000000
     12586       116  DOPC      H15R           18.9034360805       15.2903978214       -3.6888809831  MEMB      88              0.0000000000
     12587       116  DOPC      H15S           19.1607896099       15.4214964689       -1.9195811017  MEMB      88              0.0000000000
     12588       116  DOPC      C216           17.9053621893       16.9754491645       -2.7679517316  MEMB      88              0.0000000000
     12589       116  DOPC      H16R           16.8856465898       17.0108233916       -3.2057708847  MEMB      88              0.0000000000
     12590       116  DOPC      H16S           18.5816882542       17.5587375607       -3.4349855177  MEMB      88              0.0000000000
     12591       116  DOPC      C217           17.8865223380       17.6824192525       -1.4099255017  MEMB      88              0.0000000000
     12592       116  DOPC      H17R           18.9200319863       17.6945404081       -0.9956944727  MEMB      88              0.0000000000
     12593       116  DOPC      H17S           17.2439845335       17.1095191010       -0.7025578976  MEMB      88              0.0000000000
     12594       116  DOPC      C218           17.3677673940       19.1187126245       -1.5300995520  MEMB      88              0.0000000000
     12595       116  DOPC      H18R           17.4545122564       19.6714425033       -0.5741562990  MEMB      88              0.0000000000
     12596       116  DOPC      H18S           16.3002652794       19.1185670077       -1.8270747513  MEMB      88              0.0000000000
     12597       116  DOPC      H18T           17.9322067522       19.6745924504       -2.3085265262  MEMB      88              0.0000000000
     12598       116  DOPC      C33            16.8394967538       16.8487333349      -14.0654978072  MEMB      88              0.0000000000
     12599       116  DOPC      H3X            17.1567827842       17.1402876691      -15.0938789945  MEMB      88              0.0000000000
     12600       116  DOPC      H3Y            17.7650493409       16.7499341644      -13.4533571268  MEMB      88              0.0000000000
     12601       116  DOPC      C34            16.0094048761       18.0007052150      -13.4704949356  MEMB      88              0.0000000000
     12602       116  DOPC      H4X            15.1464840545       18.2194286429      -14.1379899887  MEMB      88              0.0000000000
     12603       116  DOPC      H4Y            16.6494210440       18.9124215579      -13.4691222929  MEMB      88              0.0000000000
     12604       116  DOPC      C35            15.4678727496       17.7605869398      -12.0547496254  MEMB      88              0.0000000000
     12605       116  DOPC      H5X            14.6498255770       17.0049533798      -12.0932231059  MEMB      88              0.0000000000
     12606       116  DOPC      H5Y            15.0348970547       18.7145288836      -11.6773271560  MEMB      88              0.0000000000
     12607       116  DOPC      C36            16.5330483552       17.2918244439      -11.0741645966  MEMB      88              0.0000000000
     12608       116  DOPC      H6X            16.9317673336       16.3089540901      -11.4135428923  MEMB      88              0.0000000000
     12609       116  DOPC      H6Y            17.3741050754       18.0209923253      -11.0752253667  MEMB      88              0.0000000000
     12610       116  DOPC      C37            16.0087863987       17.1159600087       -9.6484306582  MEMB      88              0.0000000000
     12611       116  DOPC      H7X            15.5487808386       18.0561609948       -9.2759330890  MEMB      88              0.0000000000
     12612       116  DOPC      H7Y            15.2460395699       16.3072748954       -9.6690081223  MEMB      88              0.0000000000
     12613       116  DOPC      C38            17.1814938534       16.7264895534       -8.7453299928  MEMB      88              0.0000000000
     12614       116  DOPC      H8X            17.9394084558       17.5347374362       -8.8515859267  MEMB      88              0.0000000000
     12615       116  DOPC      H8Y            17.5929659250       15.8241891892       -9.2325206870  MEMB      88              0.0000000000
     12616       116  DOPC      C39            17.0134701913       16.3741842125       -7.3002211428  MEMB      88              0.0000000000
     12617       116  DOPC      H9X            16.7473788973       15.3251213472       -7.0995745934  MEMB      88              0.0000000000
     12618       116  DOPC      C310           17.1560176678       17.2071058788       -6.2649210657  MEMB      88              0.0000000000
     12619       116  DOPC      H10X           17.0331573174       16.7858017045       -5.2582928893  MEMB      88              0.0000000000
     12620       116  DOPC      C311           17.4965704134       18.6784179501       -6.2938677065  MEMB      88              0.0000000000
     12621       116  DOPC      H11X           18.0492907125       18.9683776232       -7.2133571723  MEMB      88              0.0000000000
     12622       116  DOPC      H11Y           18.1504330558       18.9383540444       -5.4304700005  MEMB      88              0.0000000000
     12623       116  DOPC      C312           16.1781183205       19.4824007905       -6.1832965834  MEMB      88              0.0000000000
     12624       116  DOPC      H12X           15.5530017342       19.2957240778       -7.0835333792  MEMB      88              0.0000000000
     12625       116  DOPC      H12Y           16.4153103645       20.5691749240       -6.1561325061  MEMB      88              0.0000000000
     12626       116  DOPC      C313           15.4093511434       19.0939150639       -4.9069549783  MEMB      88              0.0000000000
     12627       116  DOPC      H13X           15.2885345050       17.9894996712       -4.8684035744  MEMB      88              0.0000000000
     12628       116  DOPC      H13Y           16.0414533743       19.4013903125       -4.0455468873  MEMB      88              0.0000000000
     12629       116  DOPC      C314           13.9834166177       19.6095372579       -4.6865738852  MEMB      88              0.0000000000
     12630       116  DOPC      H14X           13.8766539413       20.6589415099       -5.0246058793  MEMB      88              0.0000000000
     12631       116  DOPC      H14Y           13.2740986548       18.9963599460       -5.2874967516  MEMB      88              0.0000000000
     12632       116  DOPC      C315           13.6206387041       19.4849027422       -3.1910060996  MEMB      88              0.0000000000
     12633       116  DOPC      H15X           12.5634845166       19.7981229034       -3.0485394253  MEMB      88              0.0000000000
     12634       116  DOPC      H15Y           14.2547773751       20.1996970000       -2.6193436956  MEMB      88              0.0000000000
     12635       116  DOPC      C316           13.8317106694       18.0661340253       -2.6077543102  MEMB      88              0.0000000000
     12636       116  DOPC      H16X           13.0821832581       17.3892446983       -3.0710052554  MEMB      88              0.0000000000
     12637       116  DOPC      H16Y           14.8183985638       17.6430441037       -2.8786999459  MEMB      88              0.0000000000
     12638       116  DOPC      C317           13.7494876901       18.0199383390       -1.0729132818  MEMB      88              0.0000000000
     12639       116  DOPC      H17X           14.6667695656       18.4667536481       -0.6299667967  MEMB      88              0.0000000000
     12640       116  DOPC      H17Y           12.9017639364       18.6587820861       -0.7552893823  MEMB      88              0.0000000000
     12641       116  DOPC      C318           13.5432800011       16.6287813936       -0.4680154835  MEMB      88              0.0000000000
     12642       116  DOPC      H18X           13.0897156568       16.7543769546        0.5338161861  MEMB      88              0.0000000000
     12643       116  DOPC      H18Y           12.8343213807       16.0125407567       -1.0550521064  MEMB      88              0.0000000000
     12644       116  DOPC      H18Z           14.5033515655       16.0797300640       -0.3618021302  MEMB      88              0.0000000000
     12645       117  DOPC      N             -20.2466728269        5.1339748911      -20.9020917504  MEMB      89              0.0000000000
     12646       117  DOPC      C12           -21.2054161962        6.2980730326      -20.6426638625  MEMB      89              0.0000000000
     12647       117  DOPC      H12A          -22.2281078816        5.9225196226      -20.7110126086  MEMB      89              0.0000000000
     12648       117  DOPC      H12B          -21.1270294441        7.0520233176      -21.4168028616  MEMB      89              0.0000000000
     12649       117  DOPC      C13           -18.9116419112        5.6336109374      -21.3411968730  MEMB      89              0.0000000000
     12650       117  DOPC      H13A          -19.0101401351        6.5003817066      -21.9886005689  MEMB      89              0.0000000000
     12651       117  DOPC      H13B          -18.2785279540        5.8837618281      -20.4987872079  MEMB      89              0.0000000000
     12652       117  DOPC      H13C          -18.4015471884        4.8649641427      -21.9061996187  MEMB      89              0.0000000000
     12653       117  DOPC      C14           -20.8430698926        4.2782518307      -21.9866449899  MEMB      89              0.0000000000
     12654       117  DOPC      H14A          -21.1009045874        4.8766391804      -22.8557782419  MEMB      89              0.0000000000
     12655       117  DOPC      H14B          -20.1545063072        3.5157007179      -22.3250265811  MEMB      89              0.0000000000
     12656       117  DOPC      H14C          -21.7557762508        3.7805291147      -21.6590092934  MEMB      89              0.0000000000
     12657       117  DOPC      C15           -20.0473984438        4.3172602948      -19.6625706589  MEMB      89              0.0000000000
     12658       117  DOPC      H15A          -19.5746759708        4.9207473169      -18.8935726177  MEMB      89              0.0000000000
     12659       117  DOPC      H15B          -19.5247879317        3.3962627521      -19.8448457159  MEMB      89              0.0000000000
     12660       117  DOPC      H15C          -21.0273920974        4.0950304293      -19.2193881009  MEMB      89              0.0000000000
     12661       117  DOPC      C11           -21.1517251753        6.9425580059      -19.2549358168  MEMB      89              0.0000000000
     12662       117  DOPC      H11A          -20.1023685952        7.1248429476      -18.9337574833  MEMB      89              0.0000000000
     12663       117  DOPC      H11B          -21.6888266294        7.9258539723      -19.2780275075  MEMB      89              0.0000000000
     12664       117  DOPC      P             -22.8056644131        6.2938131588      -17.2869464062  MEMB      89              0.0000000000
     12665       117  DOPC      O13           -24.0768689170        6.7829224643      -17.8848119069  MEMB      89              0.0000000000
     12666       117  DOPC      O14           -22.1582671043        7.1103935473      -16.2407952428  MEMB      89              0.0000000000
     12667       117  DOPC      O12           -21.7593759818        5.9952318184      -18.3979484485  MEMB      89              0.0000000000
     12668       117  DOPC      O11           -23.0179903312        4.8111627488      -16.7456544175  MEMB      89              0.0000000000
     12669       117  DOPC      C1            -23.9507926164        3.9556716228      -17.4269226477  MEMB      89              0.0000000000
     12670       117  DOPC      HA            -23.5487664001        3.6411719015      -18.4130709461  MEMB      89              0.0000000000
     12671       117  DOPC      HB            -24.9050949089        4.5049362807      -17.6134359215  MEMB      89              0.0000000000
     12672       117  DOPC      C2            -24.3681219036        2.7003391029      -16.5854551083  MEMB      89              0.0000000000
     12673       117  DOPC      HS            -25.3899923223        2.3988224331      -16.9158990792  MEMB      89              0.0000000000
     12674       117  DOPC      O21           -24.3390544021        3.0282604025      -15.1823283715  MEMB      89              0.0000000000
     12675       117  DOPC      C21           -25.3672856246        3.7800827415      -14.8386302997  MEMB      89              0.0000000000
     12676       117  DOPC      O22           -26.3796759213        3.9450879773      -15.5041913556  MEMB      89              0.0000000000
     12677       117  DOPC      C22           -25.1649600477        4.3324970796      -13.4259301671  MEMB      89              0.0000000000
     12678       117  DOPC      H2R           -24.3263926043        5.0575591276      -13.4514629880  MEMB      89              0.0000000000
     12679       117  DOPC      H2S           -24.8763265466        3.4871535551      -12.7672596071  MEMB      89              0.0000000000
     12680       117  DOPC      C3            -23.5080491993        1.4157385176      -16.8068361673  MEMB      89              0.0000000000
     12681       117  DOPC      HX            -23.5178821866        1.1212366882      -17.8815911209  MEMB      89              0.0000000000
     12682       117  DOPC      HY            -24.0240424579        0.5960785902      -16.2538738218  MEMB      89              0.0000000000
     12683       117  DOPC      O31           -22.1766916854        1.5464112656      -16.2745052408  MEMB      89              0.0000000000
     12684       117  DOPC      C31           -21.3362170774        2.1976194286      -17.0638680268  MEMB      89              0.0000000000
     12685       117  DOPC      O32           -21.4442850104        2.3002803403      -18.2777982522  MEMB      89              0.0000000000
     12686       117  DOPC      C32           -20.0895754246        2.6219539919      -16.2725748323  MEMB      89              0.0000000000
     12687       117  DOPC      H2X           -19.2066803783        2.2588585938      -16.8324443877  MEMB      89              0.0000000000
     12688       117  DOPC      H2Y           -20.0621385189        3.7334813476      -16.2577282461  MEMB      89              0.0000000000
     12689       117  DOPC      C23           -26.4488900266        4.9925616002      -12.8617295153  MEMB      89              0.0000000000
     12690       117  DOPC      H3R           -27.3449418177        4.3986873405      -13.1612497107  MEMB      89              0.0000000000
     12691       117  DOPC      H3S           -26.5638489857        6.0159394427      -13.2862932407  MEMB      89              0.0000000000
     12692       117  DOPC      C24           -26.4435493802        5.0601412445      -11.3301065783  MEMB      89              0.0000000000
     12693       117  DOPC      H4R           -26.2494750275        4.0500927584      -10.9258775800  MEMB      89              0.0000000000
     12694       117  DOPC      H4S           -27.4412589925        5.3906632065      -10.9606168217  MEMB      89              0.0000000000
     12695       117  DOPC      C25           -25.3440544585        5.9531673925      -10.7628831524  MEMB      89              0.0000000000
     12696       117  DOPC      H5R           -25.4377459802        6.9376156840      -11.2302551134  MEMB      89              0.0000000000
     12697       117  DOPC      H5S           -24.3427890108        5.5518725722      -11.0346279233  MEMB      89              0.0000000000
     12698       117  DOPC      C26           -25.4403912009        6.1258085606       -9.2501254876  MEMB      89              0.0000000000
     12699       117  DOPC      H6R           -26.4635166021        6.4630781464       -8.9702801969  MEMB      89              0.0000000000
     12700       117  DOPC      H6S           -24.7295347204        6.9241869041       -8.9343719931  MEMB      89              0.0000000000
     12701       117  DOPC      C27           -25.0782437421        4.8306525143       -8.5155514435  MEMB      89              0.0000000000
     12702       117  DOPC      H7R           -24.1367695926        4.4369588861       -8.9589763499  MEMB      89              0.0000000000
     12703       117  DOPC      H7S           -25.8636418590        4.0581717746       -8.6798818165  MEMB      89              0.0000000000
     12704       117  DOPC      C28           -24.8627298627        5.0702425171       -7.0203249480  MEMB      89              0.0000000000
     12705       117  DOPC      H8R           -24.1481112494        5.9155489266       -6.8951649011  MEMB      89              0.0000000000
     12706       117  DOPC      H8S           -24.4053457906        4.1662034509       -6.5600776407  MEMB      89              0.0000000000
     12707       117  DOPC      C29           -26.1903812790        5.3860174385       -6.3931941616  MEMB      89              0.0000000000
     12708       117  DOPC      H9R           -27.0487880315        5.3812891356       -7.0816620836  MEMB      89              0.0000000000
     12709       117  DOPC      C210          -26.3842016918        5.7408112899       -5.1200694649  MEMB      89              0.0000000000
     12710       117  DOPC      H10R          -27.4098044413        5.9505501703       -4.7815433975  MEMB      89              0.0000000000
     12711       117  DOPC      C211          -25.3082800110        5.8903571320       -4.0787415663  MEMB      89              0.0000000000
     12712       117  DOPC      H11R          -25.1736260813        6.9730237953       -3.8693328820  MEMB      89              0.0000000000
     12713       117  DOPC      H11S          -24.3194828735        5.5426939291       -4.4419565394  MEMB      89              0.0000000000
     12714       117  DOPC      C212          -25.6630976660        5.1997487852       -2.7474352110  MEMB      89              0.0000000000
     12715       117  DOPC      H12R          -26.7223859974        5.3603417001       -2.4861382576  MEMB      89              0.0000000000
     12716       117  DOPC      H12S          -25.0722490058        5.6772912565       -1.9413313045  MEMB      89              0.0000000000
     12717       117  DOPC      C213          -25.3922033419        3.6983600212       -2.6991250104  MEMB      89              0.0000000000
     12718       117  DOPC      H13R          -26.0599780068        3.1569508385       -3.4062458599  MEMB      89              0.0000000000
     12719       117  DOPC      H13S          -25.6052768363        3.3269580357       -1.6697799407  MEMB      89              0.0000000000
     12720       117  DOPC      C214          -23.9671468727        3.3760997102       -3.1117534297  MEMB      89              0.0000000000
     12721       117  DOPC      H14R          -23.3045999659        4.2409528806       -2.8981851860  MEMB      89              0.0000000000
     12722       117  DOPC      H14S          -23.9906799722        3.2371391691       -4.2166721467  MEMB      89              0.0000000000
     12723       117  DOPC      C215          -23.4274142455        2.1197335365       -2.4368300277  MEMB      89              0.0000000000
     12724       117  DOPC      H15R          -24.2736854969        1.4151271503       -2.2907150676  MEMB      89              0.0000000000
     12725       117  DOPC      H15S          -23.0639932681        2.3858404624       -1.4206765196  MEMB      89              0.0000000000
     12726       117  DOPC      C216          -22.3216144983        1.4795342533       -3.2926225993  MEMB      89              0.0000000000
     12727       117  DOPC      H16R          -21.3537000414        1.9132527259       -2.9801405052  MEMB      89              0.0000000000
     12728       117  DOPC      H16S          -22.4881441593        1.7556677045       -4.3574857717  MEMB      89              0.0000000000
     12729       117  DOPC      C217          -22.1681071612       -0.0400421345       -3.1873547637  MEMB      89              0.0000000000
     12730       117  DOPC      H17R          -21.1841731542       -0.3446402377       -3.6067040494  MEMB      89              0.0000000000
     12731       117  DOPC      H17S          -22.8845499927       -0.5711129570       -3.8268862516  MEMB      89              0.0000000000
     12732       117  DOPC      C218          -22.3016706226       -0.5530238243       -1.7618413440  MEMB      89              0.0000000000
     12733       117  DOPC      H18R          -23.2612395886       -0.2493129602       -1.2965315800  MEMB      89              0.0000000000
     12734       117  DOPC      H18S          -21.4638318989       -0.1444688583       -1.1555814288  MEMB      89              0.0000000000
     12735       117  DOPC      H18T          -22.2607329471       -1.6621518344       -1.7693591272  MEMB      89              0.0000000000
     12736       117  DOPC      C33           -20.0157100978        2.0875816168      -14.8206112189  MEMB      89              0.0000000000
     12737       117  DOPC      H3X           -20.1123569202        0.9797906006      -14.7976331057  MEMB      89              0.0000000000
     12738       117  DOPC      H3Y           -20.8763331071        2.5089972018      -14.2519069190  MEMB      89              0.0000000000
     12739       117  DOPC      C34           -18.7030044589        2.4697205940      -14.1195323692  MEMB      89              0.0000000000
     12740       117  DOPC      H4X           -18.6086299736        3.5789526780      -14.0925541930  MEMB      89              0.0000000000
     12741       117  DOPC      H4Y           -17.8381900397        2.0890539077      -14.7060740190  MEMB      89              0.0000000000
     12742       117  DOPC      C35           -18.5919248997        1.9126704908      -12.6902003194  MEMB      89              0.0000000000
     12743       117  DOPC      H5X           -17.6501041139        2.2978421943      -12.2421414141  MEMB      89              0.0000000000
     12744       117  DOPC      H5Y           -18.5109707890        0.8024915506      -12.7353507182  MEMB      89              0.0000000000
     12745       117  DOPC      C36           -19.7653849388        2.2762589915      -11.7616638172  MEMB      89              0.0000000000
     12746       117  DOPC      H6X           -20.7053535054        1.8445883730      -12.1692270670  MEMB      89              0.0000000000
     12747       117  DOPC      H6Y           -19.5862097842        1.7947720062      -10.7732034739  MEMB      89              0.0000000000
     12748       117  DOPC      C37           -19.9584444850        3.7894722039      -11.5541096660  MEMB      89              0.0000000000
     12749       117  DOPC      H7X           -19.0985783155        4.1848395636      -10.9692442431  MEMB      89              0.0000000000
     12750       117  DOPC      H7Y           -19.9447100741        4.3026516079      -12.5412825490  MEMB      89              0.0000000000
     12751       117  DOPC      C38           -21.2900764101        4.1457919774      -10.8632206457  MEMB      89              0.0000000000
     12752       117  DOPC      H8X           -22.1230648918        3.8134582658      -11.5254276967  MEMB      89              0.0000000000
     12753       117  DOPC      H8Y           -21.3683022375        5.2545110120      -10.7956029107  MEMB      89              0.0000000000
     12754       117  DOPC      C39           -21.4011277656        3.4793818191       -9.5125871660  MEMB      89              0.0000000000
     12755       117  DOPC      H9X           -21.5753554257        2.3925868514       -9.5612746760  MEMB      89              0.0000000000
     12756       117  DOPC      C310          -21.3051142245        4.0651873441       -8.3034491984  MEMB      89              0.0000000000
     12757       117  DOPC      H10X          -21.3977837800        3.4347561114       -7.4068362857  MEMB      89              0.0000000000
     12758       117  DOPC      C311          -21.0626763167        5.5298515055       -8.0330716761  MEMB      89              0.0000000000
     12759       117  DOPC      H11X          -22.0316778459        6.0775141850       -8.0745311705  MEMB      89              0.0000000000
     12760       117  DOPC      H11Y          -20.4157207383        5.9725987575       -8.8246303054  MEMB      89              0.0000000000
     12761       117  DOPC      C312          -20.4070061201        5.8268198030       -6.6603280006  MEMB      89              0.0000000000
     12762       117  DOPC      H12X          -20.2572883000        6.9308847479       -6.6102141344  MEMB      89              0.0000000000
     12763       117  DOPC      H12Y          -19.4035936683        5.3540371102       -6.5984511908  MEMB      89              0.0000000000
     12764       117  DOPC      C313          -21.2664793984        5.4082233050       -5.4506261331  MEMB      89              0.0000000000
     12765       117  DOPC      H13X          -22.3090906861        5.7292929051       -5.6802838330  MEMB      89              0.0000000000
     12766       117  DOPC      H13Y          -21.2876405339        4.3057963754       -5.3321877649  MEMB      89              0.0000000000
     12767       117  DOPC      C314          -20.8878594336        6.0891745582       -4.1203719818  MEMB      89              0.0000000000
     12768       117  DOPC      H14X          -20.6366698021        7.1538292436       -4.3214649507  MEMB      89              0.0000000000
     12769       117  DOPC      H14Y          -21.7972018346        6.0946476175       -3.4764987294  MEMB      89              0.0000000000
     12770       117  DOPC      C315          -19.7496703899        5.4441109059       -3.2977204687  MEMB      89              0.0000000000
     12771       117  DOPC      H15X          -19.5574895849        6.1348536473       -2.4506996953  MEMB      89              0.0000000000
     12772       117  DOPC      H15Y          -18.8246557519        5.3796303476       -3.9093989875  MEMB      89              0.0000000000
     12773       117  DOPC      C316          -20.0939501260        4.0590733104       -2.7179365343  MEMB      89              0.0000000000
     12774       117  DOPC      H16X          -21.1894699108        4.0299248785       -2.5496350116  MEMB      89              0.0000000000
     12775       117  DOPC      H16Y          -19.8568179506        3.2999403844       -3.4964290431  MEMB      89              0.0000000000
     12776       117  DOPC      C317          -19.4294837972        3.6281541640       -1.3867572526  MEMB      89              0.0000000000
     12777       117  DOPC      H17X          -18.8795154132        2.6771624538       -1.5791774946  MEMB      89              0.0000000000
     12778       117  DOPC      H17Y          -18.6784918567        4.3720471780       -1.0585573572  MEMB      89              0.0000000000
     12779       117  DOPC      C318          -20.3985922865        3.3721359421       -0.2206518977  MEMB      89              0.0000000000
     12780       117  DOPC      H18X          -21.2725358875        2.7879470848       -0.5679943012  MEMB      89              0.0000000000
     12781       117  DOPC      H18Y          -19.9113343431        2.7928432695        0.5915356176  MEMB      89              0.0000000000
     12782       117  DOPC      H18Z          -20.7606694139        4.3245557319        0.2149384062  MEMB      89              0.0000000000
     12783       118  DOPC      N               1.1084599100       26.2076104227      -19.4070013599  MEMB      90              0.0000000000
     12784       118  DOPC      C12             0.9951607845       24.6971804605      -19.2705162421  MEMB      90              0.0000000000
     12785       118  DOPC      H12A            1.8366710709       24.3057808281      -18.7346183562  MEMB      90              0.0000000000
     12786       118  DOPC      H12B            1.0428151785       24.2836742617      -20.2678581775  MEMB      90              0.0000000000
     12787       118  DOPC      C13             2.2965026208       26.6333383394      -20.2142864287  MEMB      90              0.0000000000
     12788       118  DOPC      H13A            2.3287123775       27.7153594558      -20.3411510385  MEMB      90              0.0000000000
     12789       118  DOPC      H13B            3.2339024063       26.3521694154      -19.7376136225  MEMB      90              0.0000000000
     12790       118  DOPC      H13C            2.2843089072       26.1935155014      -21.2051595937  MEMB      90              0.0000000000
     12791       118  DOPC      C14             1.1697821610       26.8183436703      -18.0532986980  MEMB      90              0.0000000000
     12792       118  DOPC      H14A            1.0397668010       27.8943541569      -18.0840538100  MEMB      90              0.0000000000
     12793       118  DOPC      H14B            0.3515470955       26.4181036880      -17.4630591968  MEMB      90              0.0000000000
     12794       118  DOPC      H14C            2.1160596281       26.5871504528      -17.5824774854  MEMB      90              0.0000000000
     12795       118  DOPC      C15            -0.0968758444       26.6642355806      -20.1630904417  MEMB      90              0.0000000000
     12796       118  DOPC      H15A           -0.0788766322       27.7108448202      -20.4344794732  MEMB      90              0.0000000000
     12797       118  DOPC      H15B           -1.0041088797       26.4083732454      -19.6212216360  MEMB      90              0.0000000000
     12798       118  DOPC      H15C           -0.1361202890       26.1163409388      -21.0950718139  MEMB      90              0.0000000000
     12799       118  DOPC      C11            -0.3018997998       24.0918003281      -18.6828444117  MEMB      90              0.0000000000
     12800       118  DOPC      H11A           -0.0532646785       23.0319959750      -18.4106737258  MEMB      90              0.0000000000
     12801       118  DOPC      H11B           -0.6110509112       24.6237571098      -17.7559744192  MEMB      90              0.0000000000
     12802       118  DOPC      P              -2.6176271334       23.2150257462      -19.4555238817  MEMB      90              0.0000000000
     12803       118  DOPC      O13            -2.1589962083       21.8305369552      -19.2189816363  MEMB      90              0.0000000000
     12804       118  DOPC      O14            -3.5930784114       23.4696216743      -20.5468766595  MEMB      90              0.0000000000
     12805       118  DOPC      O12            -1.3404782177       24.1394613134      -19.6666642948  MEMB      90              0.0000000000
     12806       118  DOPC      O11            -3.1744260808       23.7889286748      -18.1289829752  MEMB      90              0.0000000000
     12807       118  DOPC      C1             -3.9837203999       24.9591969767      -18.1510078611  MEMB      90              0.0000000000
     12808       118  DOPC      HA             -5.0237734078       24.6649566225      -18.4109248810  MEMB      90              0.0000000000
     12809       118  DOPC      HB             -3.6612870564       25.7033745893      -18.9023731981  MEMB      90              0.0000000000
     12810       118  DOPC      C2             -3.9741786951       25.5446435468      -16.7270403754  MEMB      90              0.0000000000
     12811       118  DOPC      HS             -4.6630143200       26.4161456607      -16.6920832277  MEMB      90              0.0000000000
     12812       118  DOPC      O21            -2.6341088212       25.9220632428      -16.3667324062  MEMB      90              0.0000000000
     12813       118  DOPC      C21            -2.5494343312       26.6066666038      -15.2319648864  MEMB      90              0.0000000000
     12814       118  DOPC      O22            -3.4409245671       27.2720863729      -14.7349721860  MEMB      90              0.0000000000
     12815       118  DOPC      C22            -1.1522035741       26.3906857238      -14.6701595041  MEMB      90              0.0000000000
     12816       118  DOPC      H2R            -0.5487869782       27.2855233863      -14.8933281751  MEMB      90              0.0000000000
     12817       118  DOPC      H2S            -0.6912834179       25.5213142248      -15.1859025419  MEMB      90              0.0000000000
     12818       118  DOPC      C3             -4.5157963939       24.3907754922      -15.8352996680  MEMB      90              0.0000000000
     12819       118  DOPC      HX             -3.9299854795       23.4767798753      -16.0607526295  MEMB      90              0.0000000000
     12820       118  DOPC      HY             -5.5527793061       24.2429603863      -16.2080417654  MEMB      90              0.0000000000
     12821       118  DOPC      O31            -4.4345057418       24.6057177737      -14.4219608847  MEMB      90              0.0000000000
     12822       118  DOPC      C31            -5.5274906398       24.2645289402      -13.7393312481  MEMB      90              0.0000000000
     12823       118  DOPC      O32            -6.5817100396       23.8784745671      -14.2188987107  MEMB      90              0.0000000000
     12824       118  DOPC      C32            -5.2813549094       24.4946904225      -12.2497931616  MEMB      90              0.0000000000
     12825       118  DOPC      H2X            -4.3013944965       24.9956451844      -12.1087701367  MEMB      90              0.0000000000
     12826       118  DOPC      H2Y            -6.0565818079       25.2029983915      -11.9205482067  MEMB      90              0.0000000000
     12827       118  DOPC      C23            -1.2309676826       26.0992273911      -13.1611409602  MEMB      90              0.0000000000
     12828       118  DOPC      H3R            -1.7383429093       25.1153421670      -13.0632435905  MEMB      90              0.0000000000
     12829       118  DOPC      H3S            -1.8578837981       26.8583762112      -12.6383219935  MEMB      90              0.0000000000
     12830       118  DOPC      C24             0.1245396170       26.0131394631      -12.4511723718  MEMB      90              0.0000000000
     12831       118  DOPC      H4R             0.4713579750       27.0380507944      -12.1933913560  MEMB      90              0.0000000000
     12832       118  DOPC      H4S             0.8792052771       25.5567401516      -13.1316511775  MEMB      90              0.0000000000
     12833       118  DOPC      C25             0.0614826141       25.1636968231      -11.1678103740  MEMB      90              0.0000000000
     12834       118  DOPC      H5R             1.0229533098       25.2864810655      -10.6239681290  MEMB      90              0.0000000000
     12835       118  DOPC      H5S            -0.0195492634       24.0926251275      -11.4592395026  MEMB      90              0.0000000000
     12836       118  DOPC      C26            -1.1090259016       25.5039094031      -10.2237845648  MEMB      90              0.0000000000
     12837       118  DOPC      H6R            -2.0787112508       25.3367711850      -10.7436624129  MEMB      90              0.0000000000
     12838       118  DOPC      H6S            -1.0398185451       26.5823953108       -9.9727124752  MEMB      90              0.0000000000
     12839       118  DOPC      C27            -1.0866460513       24.6493036490       -8.9429521074  MEMB      90              0.0000000000
     12840       118  DOPC      H7R            -0.0458554001       24.6248047757       -8.5466206546  MEMB      90              0.0000000000
     12841       118  DOPC      H7S            -1.3426110651       23.6038992324       -9.2164069033  MEMB      90              0.0000000000
     12842       118  DOPC      C28            -2.0162881715       25.0895074879       -7.7851846001  MEMB      90              0.0000000000
     12843       118  DOPC      H8R            -1.4177681488       25.7638499712       -7.1308021502  MEMB      90              0.0000000000
     12844       118  DOPC      H8S            -2.2081309006       24.1792842398       -7.1742921631  MEMB      90              0.0000000000
     12845       118  DOPC      C29            -3.3078402506       25.7946477035       -8.1338676744  MEMB      90              0.0000000000
     12846       118  DOPC      H9R            -3.1840010976       26.7347687290       -8.6915425787  MEMB      90              0.0000000000
     12847       118  DOPC      C210           -4.5645228112       25.4069638333       -7.8630066753  MEMB      90              0.0000000000
     12848       118  DOPC      H10R           -5.3862715972       26.0918166747       -8.1142204580  MEMB      90              0.0000000000
     12849       118  DOPC      C211           -5.0049606023       24.1624276914       -7.1479723214  MEMB      90              0.0000000000
     12850       118  DOPC      H11R           -4.2259662255       23.3686868342       -7.1870978852  MEMB      90              0.0000000000
     12851       118  DOPC      H11S           -5.9049046038       23.7481540863       -7.6571533197  MEMB      90              0.0000000000
     12852       118  DOPC      C212           -5.3402886050       24.4075006043       -5.6736290237  MEMB      90              0.0000000000
     12853       118  DOPC      H12R           -5.8357325628       23.4909380045       -5.3113259811  MEMB      90              0.0000000000
     12854       118  DOPC      H12S           -6.0440191783       25.2605811305       -5.5340997583  MEMB      90              0.0000000000
     12855       118  DOPC      C213           -4.0975695435       24.5625841864       -4.7909043561  MEMB      90              0.0000000000
     12856       118  DOPC      H13R           -3.8724041548       25.6479034927       -4.7569779122  MEMB      90              0.0000000000
     12857       118  DOPC      H13S           -3.2355658246       24.0477002098       -5.2662899749  MEMB      90              0.0000000000
     12858       118  DOPC      C214           -4.2729003899       23.9822054687       -3.3747655210  MEMB      90              0.0000000000
     12859       118  DOPC      H14R           -3.3618915391       24.2034439548       -2.7802394096  MEMB      90              0.0000000000
     12860       118  DOPC      H14S           -4.3419187313       22.8749708020       -3.4373050598  MEMB      90              0.0000000000
     12861       118  DOPC      C215           -5.5194159458       24.5656182120       -2.6900093418  MEMB      90              0.0000000000
     12862       118  DOPC      H15R           -6.4045265728       24.3029111419       -3.2890328643  MEMB      90              0.0000000000
     12863       118  DOPC      H15S           -5.4914893007       25.6628779939       -2.8007709723  MEMB      90              0.0000000000
     12864       118  DOPC      C216           -5.7234816028       24.1935290120       -1.1941979975  MEMB      90              0.0000000000
     12865       118  DOPC      H16R           -4.7855256340       24.2720548429       -0.6111296679  MEMB      90              0.0000000000
     12866       118  DOPC      H16S           -5.9799832514       23.1438785495       -1.1355896146  MEMB      90              0.0000000000
     12867       118  DOPC      C217           -6.8148639980       25.0506622163       -0.5236687743  MEMB      90              0.0000000000
     12868       118  DOPC      H17R           -7.7363010515       24.9316096995       -1.1344085949  MEMB      90              0.0000000000
     12869       118  DOPC      H17S           -6.4830844646       26.1067507051       -0.5835028900  MEMB      90              0.0000000000
     12870       118  DOPC      C218           -7.1900408182       24.8299486678        0.9445756820  MEMB      90              0.0000000000
     12871       118  DOPC      H18R           -8.0931940803       24.1851905251        0.9989991197  MEMB      90              0.0000000000
     12872       118  DOPC      H18S           -7.4521938792       25.8072449639        1.4028116062  MEMB      90              0.0000000000
     12873       118  DOPC      H18T           -6.3628003114       24.4099835391        1.5501054630  MEMB      90              0.0000000000
     12874       118  DOPC      C33            -5.3506004119       23.2046971473      -11.3947946429  MEMB      90              0.0000000000
     12875       118  DOPC      H3X            -6.3872532722       22.8048925211      -11.3573531061  MEMB      90              0.0000000000
     12876       118  DOPC      H3Y            -5.0669970830       23.4673199549      -10.3448374010  MEMB      90              0.0000000000
     12877       118  DOPC      C34            -4.3668704079       22.1288463593      -11.8729341162  MEMB      90              0.0000000000
     12878       118  DOPC      H4X            -4.6096259095       21.8185299132      -12.9134067629  MEMB      90              0.0000000000
     12879       118  DOPC      H4Y            -4.4578455427       21.2321098519      -11.2219391077  MEMB      90              0.0000000000
     12880       118  DOPC      C35            -2.9301379192       22.6546966502      -11.7881177505  MEMB      90              0.0000000000
     12881       118  DOPC      H5X            -2.7568782210       23.0058960888      -10.7477971493  MEMB      90              0.0000000000
     12882       118  DOPC      H5Y            -2.8365399660       23.5317622437      -12.4578588389  MEMB      90              0.0000000000
     12883       118  DOPC      C36            -1.8404117115       21.6603256587      -12.1902352452  MEMB      90              0.0000000000
     12884       118  DOPC      H6X            -2.0326462927       21.3020574090      -13.2261678160  MEMB      90              0.0000000000
     12885       118  DOPC      H6Y            -0.8621161107       22.1950833014      -12.1940314051  MEMB      90              0.0000000000
     12886       118  DOPC      C37            -1.7111001923       20.4692148472      -11.2374763002  MEMB      90              0.0000000000
     12887       118  DOPC      H7X            -2.6669585777       19.8983368247      -11.2139393309  MEMB      90              0.0000000000
     12888       118  DOPC      H7Y            -0.9270486796       19.7971082339      -11.6620602173  MEMB      90              0.0000000000
     12889       118  DOPC      C38            -1.3217107974       20.8992785572       -9.8113239994  MEMB      90              0.0000000000
     12890       118  DOPC      H8X            -2.1541989382       21.4624037453       -9.3370240696  MEMB      90              0.0000000000
     12891       118  DOPC      H8Y            -0.4329385275       21.5662301986       -9.8585818277  MEMB      90              0.0000000000
     12892       118  DOPC      C39            -1.0238051826       19.6702708484       -9.0181322506  MEMB      90              0.0000000000
     12893       118  DOPC      H9X            -1.4205838851       18.7575564547       -9.4789806977  MEMB      90              0.0000000000
     12894       118  DOPC      C310           -0.4543888424       19.6013961733       -7.8072625232  MEMB      90              0.0000000000
     12895       118  DOPC      H10X           -0.2634503252       18.6131393609       -7.3613020905  MEMB      90              0.0000000000
     12896       118  DOPC      C311            0.0056426321       20.7634326872       -6.9788099934  MEMB      90              0.0000000000
     12897       118  DOPC      H11X            0.2011558740       21.6734041984       -7.5877926673  MEMB      90              0.0000000000
     12898       118  DOPC      H11Y            0.9515794442       20.4968568912       -6.4554843400  MEMB      90              0.0000000000
     12899       118  DOPC      C312           -1.0793417737       21.0821517557       -5.9419347365  MEMB      90              0.0000000000
     12900       118  DOPC      H12X           -1.3161034101       20.1512874449       -5.3746981531  MEMB      90              0.0000000000
     12901       118  DOPC      H12Y           -2.0236338956       21.4186761272       -6.4285356376  MEMB      90              0.0000000000
     12902       118  DOPC      C313           -0.6185183297       22.1552856366       -4.9564543500  MEMB      90              0.0000000000
     12903       118  DOPC      H13X            0.4967877436       22.1977228953       -4.9811677328  MEMB      90              0.0000000000
     12904       118  DOPC      H13Y           -0.9821880330       23.1570847770       -5.2687005790  MEMB      90              0.0000000000
     12905       118  DOPC      C314           -1.0572296750       21.8457281471       -3.5240117440  MEMB      90              0.0000000000
     12906       118  DOPC      H14X           -1.5316794790       22.7452438208       -3.0743031218  MEMB      90              0.0000000000
     12907       118  DOPC      H14Y           -1.8022897346       21.0203041280       -3.4961792519  MEMB      90              0.0000000000
     12908       118  DOPC      C315            0.1662948717       21.4683325497       -2.7035691936  MEMB      90              0.0000000000
     12909       118  DOPC      H15X            0.7178995371       20.6380928155       -3.2038511408  MEMB      90              0.0000000000
     12910       118  DOPC      H15Y            0.8434496833       22.3527402651       -2.6897375045  MEMB      90              0.0000000000
     12911       118  DOPC      C316           -0.1323930711       21.0807107276       -1.2593574262  MEMB      90              0.0000000000
     12912       118  DOPC      H16X           -0.5428801037       20.0498207306       -1.1875773058  MEMB      90              0.0000000000
     12913       118  DOPC      H16Y            0.8717579162       21.0952626316       -0.7968023203  MEMB      90              0.0000000000
     12914       118  DOPC      C317           -0.9693704278       22.0868492844       -0.4665021554  MEMB      90              0.0000000000
     12915       118  DOPC      H17X           -0.7786365817       23.1010929500       -0.8901561629  MEMB      90              0.0000000000
     12916       118  DOPC      H17Y           -2.0529931770       21.8679504969       -0.5935879770  MEMB      90              0.0000000000
     12917       118  DOPC      C318           -0.5822143140       22.1130488572        1.0162382420  MEMB      90              0.0000000000
     12918       118  DOPC      H18X           -1.2724533451       22.7615194466        1.5955955478  MEMB      90              0.0000000000
     12919       118  DOPC      H18Y           -0.5819065828       21.0925709733        1.4550524349  MEMB      90              0.0000000000
     12920       118  DOPC      H18Z            0.4453897445       22.5237962911        1.1237254194  MEMB      90              0.0000000000
     12921       119  DOPC      N              18.7965896897      -16.5759448184      -20.4200102877  MEMB      91              0.0000000000
     12922       119  DOPC      C12            19.5407792577      -17.8459262428      -20.8070525018  MEMB      91              0.0000000000
     12923       119  DOPC      H12A           20.1858922443      -17.6467936273      -21.6559523791  MEMB      91              0.0000000000
     12924       119  DOPC      H12B           18.8075631230      -18.5755882444      -21.1463142925  MEMB      91              0.0000000000
     12925       119  DOPC      C13            19.6478059307      -15.7928995302      -19.4773474546  MEMB      91              0.0000000000
     12926       119  DOPC      H13A           19.1181011205      -14.9959369173      -18.9844395938  MEMB      91              0.0000000000
     12927       119  DOPC      H13B           19.9961477504      -16.4915585327      -18.7095354815  MEMB      91              0.0000000000
     12928       119  DOPC      H13C           20.4902617444      -15.3745872437      -20.0059856838  MEMB      91              0.0000000000
     12929       119  DOPC      C14            17.5346694507      -16.9603693873      -19.6966248822  MEMB      91              0.0000000000
     12930       119  DOPC      H14A           17.0885162318      -16.1435479075      -19.1582062876  MEMB      91              0.0000000000
     12931       119  DOPC      H14B           16.8121144256      -17.3921921999      -20.3779186320  MEMB      91              0.0000000000
     12932       119  DOPC      H14C           17.7683305183      -17.7207813321      -18.9423274986  MEMB      91              0.0000000000
     12933       119  DOPC      C15            18.4672393993      -15.7864066180      -21.6368217235  MEMB      91              0.0000000000
     12934       119  DOPC      H15A           18.0496419555      -16.4375540953      -22.4025818381  MEMB      91              0.0000000000
     12935       119  DOPC      H15B           19.3554528686      -15.2781933192      -22.0172144524  MEMB      91              0.0000000000
     12936       119  DOPC      H15C           17.7532593018      -15.0219709395      -21.3675045730  MEMB      91              0.0000000000
     12937       119  DOPC      C11            20.3952607719      -18.5074055973      -19.6940550179  MEMB      91              0.0000000000
     12938       119  DOPC      H11A           20.7361359556      -19.5229634507      -20.0059849306  MEMB      91              0.0000000000
     12939       119  DOPC      H11B           21.3255613037      -17.9189527587      -19.5277726797  MEMB      91              0.0000000000
     12940       119  DOPC      P              18.9209723402      -19.8031637477      -17.9359162017  MEMB      91              0.0000000000
     12941       119  DOPC      O13            18.9429354316      -20.8822526669      -18.9532044300  MEMB      91              0.0000000000
     12942       119  DOPC      O14            17.6187352802      -19.3368219011      -17.4245994803  MEMB      91              0.0000000000
     12943       119  DOPC      O12            19.6772674494      -18.5381982528      -18.4708377808  MEMB      91              0.0000000000
     12944       119  DOPC      O11            19.8518258138      -20.1618182669      -16.7150325642  MEMB      91              0.0000000000
     12945       119  DOPC      C1             21.2579454814      -19.8075388627      -16.7180558879  MEMB      91              0.0000000000
     12946       119  DOPC      HA             21.5332231991      -18.9426928765      -17.3593391421  MEMB      91              0.0000000000
     12947       119  DOPC      HB             21.8041254142      -20.6933384436      -17.1096230240  MEMB      91              0.0000000000
     12948       119  DOPC      C2             21.8791753498      -19.4887662924      -15.3096559958  MEMB      91              0.0000000000
     12949       119  DOPC      HS             22.8493221214      -20.0296685148      -15.2485424761  MEMB      91              0.0000000000
     12950       119  DOPC      O21            20.9944630537      -19.8907501231      -14.2579693875  MEMB      91              0.0000000000
     12951       119  DOPC      C21            20.9346192387      -21.2100318188      -14.2133862301  MEMB      91              0.0000000000
     12952       119  DOPC      O22            21.6281369347      -21.9791545316      -14.8533058523  MEMB      91              0.0000000000
     12953       119  DOPC      C22            19.9588939392      -21.6710051632      -13.1491341734  MEMB      91              0.0000000000
     12954       119  DOPC      H2R            19.1394511857      -22.1984123593      -13.6802068230  MEMB      91              0.0000000000
     12955       119  DOPC      H2S            19.5426147924      -20.8067130011      -12.5954257372  MEMB      91              0.0000000000
     12956       119  DOPC      C3             22.2691051015      -17.9928423810      -15.0716446070  MEMB      91              0.0000000000
     12957       119  DOPC      HX             23.0675447181      -17.7524146271      -15.8028016603  MEMB      91              0.0000000000
     12958       119  DOPC      HY             22.7315656389      -17.9240624220      -14.0555176785  MEMB      91              0.0000000000
     12959       119  DOPC      O31            21.1732258755      -17.0836511330      -15.2761754687  MEMB      91              0.0000000000
     12960       119  DOPC      C31            20.7720967747      -16.3677518645      -14.2367680984  MEMB      91              0.0000000000
     12961       119  DOPC      O32            21.3793589665      -16.2131695512      -13.1951977647  MEMB      91              0.0000000000
     12962       119  DOPC      C32            19.4181523547      -15.7645514258      -14.5867608962  MEMB      91              0.0000000000
     12963       119  DOPC      H2X            19.0457802761      -15.2265788835      -13.6922299996  MEMB      91              0.0000000000
     12964       119  DOPC      H2Y            19.5614843145      -15.0483080655      -15.4183193063  MEMB      91              0.0000000000
     12965       119  DOPC      C23            20.7082646551      -22.6270040473      -12.2042364544  MEMB      91              0.0000000000
     12966       119  DOPC      H3R            21.4412936353      -23.2568324120      -12.7580727701  MEMB      91              0.0000000000
     12967       119  DOPC      H3S            19.9700331513      -23.3264459519      -11.7429443048  MEMB      91              0.0000000000
     12968       119  DOPC      C24            21.4470888283      -21.9237604746      -11.0594394407  MEMB      91              0.0000000000
     12969       119  DOPC      H4R            22.1969888092      -22.6226398946      -10.6231895091  MEMB      91              0.0000000000
     12970       119  DOPC      H4S            20.6726345080      -21.7123557452      -10.2908116694  MEMB      91              0.0000000000
     12971       119  DOPC      C25            22.1683003344      -20.5954991080      -11.3097922775  MEMB      91              0.0000000000
     12972       119  DOPC      H5R            21.5697845415      -19.9078952237      -11.9361165563  MEMB      91              0.0000000000
     12973       119  DOPC      H5S            23.1352167285      -20.7789767129      -11.8240687000  MEMB      91              0.0000000000
     12974       119  DOPC      C26            22.4191397279      -19.9214836506       -9.9581708323  MEMB      91              0.0000000000
     12975       119  DOPC      H6R            23.2886749164      -20.4396332340       -9.5217435745  MEMB      91              0.0000000000
     12976       119  DOPC      H6S            21.5648559452      -20.1256604725       -9.2795745453  MEMB      91              0.0000000000
     12977       119  DOPC      C27            22.6343921247      -18.4015944645       -9.9836464598  MEMB      91              0.0000000000
     12978       119  DOPC      H7R            23.4738523632      -18.1701035532      -10.6752805873  MEMB      91              0.0000000000
     12979       119  DOPC      H7S            22.9449971369      -18.0732272835       -8.9651730493  MEMB      91              0.0000000000
     12980       119  DOPC      C28            21.3887636056      -17.5892725530      -10.3924802680  MEMB      91              0.0000000000
     12981       119  DOPC      H8R            21.1170943621      -17.8550035519      -11.4362680017  MEMB      91              0.0000000000
     12982       119  DOPC      H8S            21.6836059479      -16.5169134958      -10.4165297291  MEMB      91              0.0000000000
     12983       119  DOPC      C29            20.1925360284      -17.8206072600       -9.5007852192  MEMB      91              0.0000000000
     12984       119  DOPC      H9R            19.7995070842      -18.8453155619       -9.5206908845  MEMB      91              0.0000000000
     12985       119  DOPC      C210           19.5964144490      -16.9280745196       -8.6929701764  MEMB      91              0.0000000000
     12986       119  DOPC      H10R           18.7352763494      -17.2395702001       -8.0844631532  MEMB      91              0.0000000000
     12987       119  DOPC      C211           20.0103857055      -15.4977218749       -8.5119170814  MEMB      91              0.0000000000
     12988       119  DOPC      H11R           19.1527324707      -14.8845110772       -8.1568751859  MEMB      91              0.0000000000
     12989       119  DOPC      H11S           20.3327637526      -15.0630980499       -9.4813279463  MEMB      91              0.0000000000
     12990       119  DOPC      C212           21.1501507225      -15.4044160973       -7.4824644466  MEMB      91              0.0000000000
     12991       119  DOPC      H12R           21.5381518849      -14.3621365988       -7.5067857233  MEMB      91              0.0000000000
     12992       119  DOPC      H12S           21.9951378478      -16.0680457345       -7.7832818491  MEMB      91              0.0000000000
     12993       119  DOPC      C213           20.6842850951      -15.7508199042       -6.0523727644  MEMB      91              0.0000000000
     12994       119  DOPC      H13R           20.7408667605      -16.8545754573       -5.9111321945  MEMB      91              0.0000000000
     12995       119  DOPC      H13S           19.6172500303      -15.4570791863       -5.9350028812  MEMB      91              0.0000000000
     12996       119  DOPC      C214           21.4945970425      -15.0297898641       -4.9633332363  MEMB      91              0.0000000000
     12997       119  DOPC      H14R           21.3047486310      -13.9362547437       -5.0116274940  MEMB      91              0.0000000000
     12998       119  DOPC      H14S           22.5741681454      -15.1770613782       -5.1875355751  MEMB      91              0.0000000000
     12999       119  DOPC      C215           21.2560550583      -15.5435452329       -3.5307173257  MEMB      91              0.0000000000
     13000       119  DOPC      H15R           22.1519106110      -15.2383852715       -2.9418230090  MEMB      91              0.0000000000
     13001       119  DOPC      H15S           21.2318308882      -16.6541679647       -3.5025275752  MEMB      91              0.0000000000
     13002       119  DOPC      C216           20.0425514272      -14.9449030161       -2.7959741834  MEMB      91              0.0000000000
     13003       119  DOPC      H16R           19.2776959794      -15.7378265632       -2.6286556877  MEMB      91              0.0000000000
     13004       119  DOPC      H16S           19.5702868865      -14.1557057628       -3.4208507112  MEMB      91              0.0000000000
     13005       119  DOPC      C217           20.4755348030      -14.3526484321       -1.4412606311  MEMB      91              0.0000000000
     13006       119  DOPC      H17R           21.3313699494      -13.6587759209       -1.6126682543  MEMB      91              0.0000000000
     13007       119  DOPC      H17S           20.8399057507      -15.1858691125       -0.7981101996  MEMB      91              0.0000000000
     13008       119  DOPC      C218           19.3976763428      -13.5968091067       -0.6744206980  MEMB      91              0.0000000000
     13009       119  DOPC      H18R           19.7309833136      -13.3603543677        0.3600583200  MEMB      91              0.0000000000
     13010       119  DOPC      H18S           18.4518719084      -14.1730516051       -0.6327920592  MEMB      91              0.0000000000
     13011       119  DOPC      H18T           19.1714733037      -12.6432097829       -1.1665584005  MEMB      91              0.0000000000
     13012       119  DOPC      C33            18.4129964469      -16.8625154837      -14.9981512720  MEMB      91              0.0000000000
     13013       119  DOPC      H3X            18.7344961421      -17.3938756060      -15.9235281628  MEMB      91              0.0000000000
     13014       119  DOPC      H3Y            17.4270224464      -16.3941262446      -15.2097203312  MEMB      91              0.0000000000
     13015       119  DOPC      C34            18.2400658509      -17.8688994081      -13.8623393298  MEMB      91              0.0000000000
     13016       119  DOPC      H4X            18.3766546767      -17.2937955634      -12.9227000039  MEMB      91              0.0000000000
     13017       119  DOPC      H4Y            19.0485358421      -18.6312810766      -13.9031235921  MEMB      91              0.0000000000
     13018       119  DOPC      C35            16.8801192955      -18.5732230799      -13.8455600728  MEMB      91              0.0000000000
     13019       119  DOPC      H5X            16.8190224491      -19.2505232813      -14.7301153588  MEMB      91              0.0000000000
     13020       119  DOPC      H5Y            16.0711638338      -17.8158911254      -13.9303196438  MEMB      91              0.0000000000
     13021       119  DOPC      C36            16.6749272249      -19.3854419420      -12.5612483694  MEMB      91              0.0000000000
     13022       119  DOPC      H6X            15.6591727338      -19.8342125850      -12.5646233356  MEMB      91              0.0000000000
     13023       119  DOPC      H6Y            17.4129702304      -20.2149253875      -12.5830214304  MEMB      91              0.0000000000
     13024       119  DOPC      C37            16.8607170090      -18.5585155276      -11.2730918207  MEMB      91              0.0000000000
     13025       119  DOPC      H7X            17.9039792324      -18.1763871744      -11.2020419648  MEMB      91              0.0000000000
     13026       119  DOPC      H7Y            16.1883962129      -17.6727804384      -11.3133838060  MEMB      91              0.0000000000
     13027       119  DOPC      C38            16.5847633724      -19.3385610027       -9.9822416847  MEMB      91              0.0000000000
     13028       119  DOPC      H8X            15.5281564521      -19.6826190988       -9.9818344838  MEMB      91              0.0000000000
     13029       119  DOPC      H8Y            16.6951548400      -18.6315175078       -9.1287419850  MEMB      91              0.0000000000
     13030       119  DOPC      C39            17.5384830258      -20.5021108785       -9.8839881451  MEMB      91              0.0000000000
     13031       119  DOPC      H9X            17.6540938177      -21.1136298564      -10.7900432037  MEMB      91              0.0000000000
     13032       119  DOPC      C310           18.2262242586      -20.8703605897       -8.8051311466  MEMB      91              0.0000000000
     13033       119  DOPC      H10X           18.8816778635      -21.7453107671       -8.8837824496  MEMB      91              0.0000000000
     13034       119  DOPC      C311           18.1849688611      -20.1957943976       -7.4669670849  MEMB      91              0.0000000000
     13035       119  DOPC      H11X           18.0660165217      -19.0956465860       -7.5497789087  MEMB      91              0.0000000000
     13036       119  DOPC      H11Y           19.1569832117      -20.3725060859       -6.9659474885  MEMB      91              0.0000000000
     13037       119  DOPC      C312           17.0122197900      -20.7503953280       -6.6444006129  MEMB      91              0.0000000000
     13038       119  DOPC      H12X           17.0093665299      -21.8627093658       -6.6985099028  MEMB      91              0.0000000000
     13039       119  DOPC      H12Y           16.0460464061      -20.3947755118       -7.0779354520  MEMB      91              0.0000000000
     13040       119  DOPC      C313           17.0429972006      -20.3757965091       -5.1588007538  MEMB      91              0.0000000000
     13041       119  DOPC      H13X           16.5265640966      -19.3986904224       -5.0257880299  MEMB      91              0.0000000000
     13042       119  DOPC      H13Y           16.4568653156      -21.1433478877       -4.6041057720  MEMB      91              0.0000000000
     13043       119  DOPC      C314           18.4475671314      -20.2756645382       -4.5451435259  MEMB      91              0.0000000000
     13044       119  DOPC      H14X           19.0818912364      -21.1330195914       -4.8243075516  MEMB      91              0.0000000000
     13045       119  DOPC      H14Y           18.9550191459      -19.3795467796       -4.9621063208  MEMB      91              0.0000000000
     13046       119  DOPC      C315           18.4360024983      -20.1901640797       -3.0196533497  MEMB      91              0.0000000000
     13047       119  DOPC      H15X           19.4359654901      -19.8357724913       -2.6868359674  MEMB      91              0.0000000000
     13048       119  DOPC      H15Y           18.2775798753      -21.2047815500       -2.5854559451  MEMB      91              0.0000000000
     13049       119  DOPC      C316           17.3444834416      -19.2518687116       -2.5020788857  MEMB      91              0.0000000000
     13050       119  DOPC      H16X           17.4653133125      -18.2531246977       -2.9805139104  MEMB      91              0.0000000000
     13051       119  DOPC      H16Y           16.3421997551      -19.6516775560       -2.7726067195  MEMB      91              0.0000000000
     13052       119  DOPC      C317           17.3946000446      -19.1052669331       -0.9882704098  MEMB      91              0.0000000000
     13053       119  DOPC      H17X           17.3384598418      -20.1131451880       -0.5294274724  MEMB      91              0.0000000000
     13054       119  DOPC      H17Y           18.3957446695      -18.6982304707       -0.7444811623  MEMB      91              0.0000000000
     13055       119  DOPC      C318           16.2842151839      -18.2194188363       -0.4193610098  MEMB      91              0.0000000000
     13056       119  DOPC      H18X           16.3863409520      -17.1777999642       -0.7929153968  MEMB      91              0.0000000000
     13057       119  DOPC      H18Y           15.2854352284      -18.6061223877       -0.7174788092  MEMB      91              0.0000000000
     13058       119  DOPC      H18Z           16.3355404930      -18.2003463756        0.6910884462  MEMB      91              0.0000000000
     13059       120  DOPC      N              13.5419163812      -22.9126331434      -17.6424107721  MEMB      92              0.0000000000
     13060       120  DOPC      C12            12.0974079231      -22.8366597783      -18.1450701744  MEMB      92              0.0000000000
     13061       120  DOPC      H12A           12.0025047565      -21.9531386700      -18.7698229749  MEMB      92              0.0000000000
     13062       120  DOPC      H12B           11.4336395197      -22.6800557874      -17.3018051162  MEMB      92              0.0000000000
     13063       120  DOPC      C13            14.4681249449      -23.1706079056      -18.7907368022  MEMB      92              0.0000000000
     13064       120  DOPC      H13A           14.2412547889      -22.4729028963      -19.5914001181  MEMB      92              0.0000000000
     13065       120  DOPC      H13B           15.5082311714      -23.1178614780      -18.5108857059  MEMB      92              0.0000000000
     13066       120  DOPC      H13C           14.2572491150      -24.1480430157      -19.2221483525  MEMB      92              0.0000000000
     13067       120  DOPC      C14            13.7255217578      -23.9802863614      -16.6106303137  MEMB      92              0.0000000000
     13068       120  DOPC      H14A           13.5871359551      -24.9704492473      -17.0526768049  MEMB      92              0.0000000000
     13069       120  DOPC      H14B           14.7135063004      -23.9709364122      -16.1516463912  MEMB      92              0.0000000000
     13070       120  DOPC      H14C           12.9852238081      -23.9082287499      -15.8180339665  MEMB      92              0.0000000000
     13071       120  DOPC      C15            13.9242138233      -21.5748285360      -17.0865439902  MEMB      92              0.0000000000
     13072       120  DOPC      H15A           14.9832555830      -21.5391119395      -16.8508243176  MEMB      92              0.0000000000
     13073       120  DOPC      H15B           13.3585277617      -21.3664627459      -16.1881711623  MEMB      92              0.0000000000
     13074       120  DOPC      H15C           13.7291209899      -20.7822564292      -17.8064422516  MEMB      92              0.0000000000
     13075       120  DOPC      C11            11.5225801708      -24.0091519534      -18.9836209051  MEMB      92              0.0000000000
     13076       120  DOPC      H11A           11.3900476171      -24.8915885781      -18.3344142866  MEMB      92              0.0000000000
     13077       120  DOPC      H11B           10.5048642915      -23.7222989279      -19.3403763420  MEMB      92              0.0000000000
     13078       120  DOPC      P              12.0259624108      -25.5601753500      -21.0092784208  MEMB      92              0.0000000000
     13079       120  DOPC      O13            13.0628522469      -25.6170116455      -22.0756435383  MEMB      92              0.0000000000
     13080       120  DOPC      O14            10.6066922168      -25.4711714146      -21.4515754516  MEMB      92              0.0000000000
     13081       120  DOPC      O12            12.3643307499      -24.3174586200      -20.0846753117  MEMB      92              0.0000000000
     13082       120  DOPC      O11            12.2959656893      -26.7957687039      -20.0309254166  MEMB      92              0.0000000000
     13083       120  DOPC      C1             13.5429434498      -26.8795963195      -19.2936273967  MEMB      92              0.0000000000
     13084       120  DOPC      HA             14.0681147460      -25.9049842743      -19.2224709089  MEMB      92              0.0000000000
     13085       120  DOPC      HB             14.2279102573      -27.5774568935      -19.8258482121  MEMB      92              0.0000000000
     13086       120  DOPC      C2             13.3902352187      -27.4290262993      -17.8267524743  MEMB      92              0.0000000000
     13087       120  DOPC      HS             13.1525275610      -28.5008065039      -17.9481548796  MEMB      92              0.0000000000
     13088       120  DOPC      O21            12.3549805951      -26.7023918514      -17.1197136803  MEMB      92              0.0000000000
     13089       120  DOPC      C21            11.1474900130      -27.2453714140      -17.2863885217  MEMB      92              0.0000000000
     13090       120  DOPC      O22            10.9082500929      -28.3014993864      -17.8515073156  MEMB      92              0.0000000000
     13091       120  DOPC      C22            10.0291367668      -26.4161820764      -16.5717439164  MEMB      92              0.0000000000
     13092       120  DOPC      H2R             9.4974820102      -27.1246287015      -15.9034204327  MEMB      92              0.0000000000
     13093       120  DOPC      H2S             9.3211826687      -26.1126240438      -17.3722708212  MEMB      92              0.0000000000
     13094       120  DOPC      C3             14.7285070277      -27.3864723785      -16.9816063189  MEMB      92              0.0000000000
     13095       120  DOPC      HX             15.2288438805      -26.4019349408      -17.1071305871  MEMB      92              0.0000000000
     13096       120  DOPC      HY             15.4062351358      -28.1304152062      -17.4647435386  MEMB      92              0.0000000000
     13097       120  DOPC      O31            14.5776478070      -27.7916494643      -15.5834985063  MEMB      92              0.0000000000
     13098       120  DOPC      C31            15.1748883079      -27.0230706890      -14.6666274143  MEMB      92              0.0000000000
     13099       120  DOPC      O32            15.4959145456      -25.8627003258      -14.8526251301  MEMB      92              0.0000000000
     13100       120  DOPC      C32            15.6715691660      -27.9635778252      -13.5138936481  MEMB      92              0.0000000000
     13101       120  DOPC      H2X            14.9570395319      -28.7960177155      -13.4149554871  MEMB      92              0.0000000000
     13102       120  DOPC      H2Y            16.5924061790      -28.3656192495      -13.9934110916  MEMB      92              0.0000000000
     13103       120  DOPC      C23            10.3725064877      -25.1386208754      -15.7408683259  MEMB      92              0.0000000000
     13104       120  DOPC      H3R             9.4083382004      -24.6501246320      -15.4647611758  MEMB      92              0.0000000000
     13105       120  DOPC      H3S            10.9224397847      -24.3930916793      -16.3406141890  MEMB      92              0.0000000000
     13106       120  DOPC      C24            11.1186055006      -25.3866462144      -14.4245730525  MEMB      92              0.0000000000
     13107       120  DOPC      H4R            12.1284034816      -25.7855926762      -14.6668937740  MEMB      92              0.0000000000
     13108       120  DOPC      H4S            10.5875328828      -26.1689442819      -13.8379143438  MEMB      92              0.0000000000
     13109       120  DOPC      C25            11.2226942383      -24.1105196373      -13.5651534799  MEMB      92              0.0000000000
     13110       120  DOPC      H5R            10.2167233567      -23.6485037380      -13.4725151155  MEMB      92              0.0000000000
     13111       120  DOPC      H5S            11.8885108608      -23.3687727340      -14.0561029449  MEMB      92              0.0000000000
     13112       120  DOPC      C26            11.7304005752      -24.3520054377      -12.1411369426  MEMB      92              0.0000000000
     13113       120  DOPC      H6R            10.9927379692      -24.9772655633      -11.5872347551  MEMB      92              0.0000000000
     13114       120  DOPC      H6S            11.8398560693      -23.3942203541      -11.5841248395  MEMB      92              0.0000000000
     13115       120  DOPC      C27            13.0617997579      -25.0761615428      -12.1080483244  MEMB      92              0.0000000000
     13116       120  DOPC      H7R            12.9508957861      -26.0538433466      -12.6346000414  MEMB      92              0.0000000000
     13117       120  DOPC      H7S            13.2818568910      -25.2732487092      -11.0366652393  MEMB      92              0.0000000000
     13118       120  DOPC      C28            14.2648077044      -24.3453098152      -12.7227788039  MEMB      92              0.0000000000
     13119       120  DOPC      H8R            14.0858728777      -24.2618775878      -13.8113396876  MEMB      92              0.0000000000
     13120       120  DOPC      H8S            15.1570148634      -24.9982747618      -12.5871791025  MEMB      92              0.0000000000
     13121       120  DOPC      C29            14.5687683140      -22.9780546856      -12.2012395843  MEMB      92              0.0000000000
     13122       120  DOPC      H9R            14.1640996603      -22.1581529087      -12.8080875984  MEMB      92              0.0000000000
     13123       120  DOPC      C210           15.2859754274      -22.6872484645      -11.1096915953  MEMB      92              0.0000000000
     13124       120  DOPC      H10R           15.3984596103      -21.6320244242      -10.8480856904  MEMB      92              0.0000000000
     13125       120  DOPC      C211           15.9454701143      -23.6495513011      -10.1551349237  MEMB      92              0.0000000000
     13126       120  DOPC      H11R           17.0459451702      -23.4831427896      -10.1394185305  MEMB      92              0.0000000000
     13127       120  DOPC      H11S           15.8151138422      -24.6949556044      -10.4888898822  MEMB      92              0.0000000000
     13128       120  DOPC      C212           15.3999149494      -23.4757307152       -8.7177583148  MEMB      92              0.0000000000
     13129       120  DOPC      H12R           15.6759483139      -22.4585071179       -8.3644617826  MEMB      92              0.0000000000
     13130       120  DOPC      H12S           15.9107413881      -24.2000499782       -8.0483406255  MEMB      92              0.0000000000
     13131       120  DOPC      C213           13.8688834639      -23.6232865482       -8.5728794752  MEMB      92              0.0000000000
     13132       120  DOPC      H13R           13.5052381739      -24.5771685167       -9.0016070464  MEMB      92              0.0000000000
     13133       120  DOPC      H13S           13.4048074499      -22.7940283664       -9.1552548502  MEMB      92              0.0000000000
     13134       120  DOPC      C214           13.3642093792      -23.4817810587       -7.1248209154  MEMB      92              0.0000000000
     13135       120  DOPC      H14R           12.3034550253      -23.1510937778       -7.1374901582  MEMB      92              0.0000000000
     13136       120  DOPC      H14S           13.9565336886      -22.6503717592       -6.6965739458  MEMB      92              0.0000000000
     13137       120  DOPC      C215           13.4610303260      -24.7612138966       -6.2690982037  MEMB      92              0.0000000000
     13138       120  DOPC      H15R           14.5300306650      -25.0268341660       -6.1194361482  MEMB      92              0.0000000000
     13139       120  DOPC      H15S           12.9942984550      -25.6013232052       -6.8357343942  MEMB      92              0.0000000000
     13140       120  DOPC      C216           12.7687464774      -24.7161289567       -4.8855863679  MEMB      92              0.0000000000
     13141       120  DOPC      H16R           13.1553638895      -25.5544596706       -4.2730564459  MEMB      92              0.0000000000
     13142       120  DOPC      H16S           11.6824725507      -24.9337246624       -5.0348508348  MEMB      92              0.0000000000
     13143       120  DOPC      C217           12.8572679948      -23.4032980205       -4.0683931716  MEMB      92              0.0000000000
     13144       120  DOPC      H17R           12.4921178645      -23.5789939398       -3.0327082376  MEMB      92              0.0000000000
     13145       120  DOPC      H17S           12.1225017472      -22.7804666397       -4.5612524030  MEMB      92              0.0000000000
     13146       120  DOPC      C218           14.1390597486      -22.5555029922       -4.0105192620  MEMB      92              0.0000000000
     13147       120  DOPC      H18R           14.7788771845      -22.8461434938       -3.1551334295  MEMB      92              0.0000000000
     13148       120  DOPC      H18S           13.8972085721      -21.4730472705       -3.8977994627  MEMB      92              0.0000000000
     13149       120  DOPC      H18T           14.7494277684      -22.6828773422       -4.9235158015  MEMB      92              0.0000000000
     13150       120  DOPC      C33            16.1533188376      -27.5226650087      -12.0703407390  MEMB      92              0.0000000000
     13151       120  DOPC      H3X            16.7232423852      -26.5718243705      -12.0835969934  MEMB      92              0.0000000000
     13152       120  DOPC      H3Y            16.8836114348      -28.3116843384      -11.7675092775  MEMB      92              0.0000000000
     13153       120  DOPC      C34            15.0773921089      -27.5503357187      -10.9485890011  MEMB      92              0.0000000000
     13154       120  DOPC      H4X            14.6297264764      -28.5596300868      -10.8510387258  MEMB      92              0.0000000000
     13155       120  DOPC      H4Y            14.2774584153      -26.9187515586      -11.3151234555  MEMB      92              0.0000000000
     13156       120  DOPC      C35            15.4459107336      -27.0705644911       -9.5208954271  MEMB      92              0.0000000000
     13157       120  DOPC      H5X            15.0494740404      -27.8045856443       -8.7824162455  MEMB      92              0.0000000000
     13158       120  DOPC      H5Y            14.9719146238      -26.1060141715       -9.2533552759  MEMB      92              0.0000000000
     13159       120  DOPC      C36            16.9467089362      -26.9996521921       -9.3126940521  MEMB      92              0.0000000000
     13160       120  DOPC      H6X            17.2777215842      -27.9545048207       -9.7398867950  MEMB      92              0.0000000000
     13161       120  DOPC      H6Y            17.4353202526      -26.2129970574       -9.9268292662  MEMB      92              0.0000000000
     13162       120  DOPC      C37            17.3992288876      -26.9116104630       -7.8459650013  MEMB      92              0.0000000000
     13163       120  DOPC      H7X            17.0647102855      -25.9464917065       -7.3994885660  MEMB      92              0.0000000000
     13164       120  DOPC      H7Y            16.9151912809      -27.7307659796       -7.2653413864  MEMB      92              0.0000000000
     13165       120  DOPC      C38            18.9374679787      -27.0344054371       -7.7713460212  MEMB      92              0.0000000000
     13166       120  DOPC      H8X            19.3907685489      -26.0471436898       -7.5535754941  MEMB      92              0.0000000000
     13167       120  DOPC      H8Y            19.2562620234      -27.2078866451       -8.8254786574  MEMB      92              0.0000000000
     13168       120  DOPC      C39            19.5605410293      -28.1630775127       -6.9754265515  MEMB      92              0.0000000000
     13169       120  DOPC      H9X            20.4496805442      -28.5515418651       -7.4920192633  MEMB      92              0.0000000000
     13170       120  DOPC      C310           19.3514835701      -28.6587008250       -5.7309731820  MEMB      92              0.0000000000
     13171       120  DOPC      H10X           19.9860684602      -29.5047696156       -5.4343741584  MEMB      92              0.0000000000
     13172       120  DOPC      C311           18.3880107197      -28.2229713235       -4.6550927669  MEMB      92              0.0000000000
     13173       120  DOPC      H11X           18.0885341101      -27.2238383970       -4.9979829064  MEMB      92              0.0000000000
     13174       120  DOPC      H11Y           19.0002740473      -28.0778425367       -3.7393289835  MEMB      92              0.0000000000
     13175       120  DOPC      C312           17.0475497040      -28.8279674771       -4.1147347579  MEMB      92              0.0000000000
     13176       120  DOPC      H12X           16.3634238373      -29.1838592105       -4.9100100204  MEMB      92              0.0000000000
     13177       120  DOPC      H12Y           16.5891524807      -27.9278932575       -3.6626623917  MEMB      92              0.0000000000
     13178       120  DOPC      C313           17.0994811950      -29.7955079655       -2.9085259947  MEMB      92              0.0000000000
     13179       120  DOPC      H13X           17.1105208880      -30.8249384850       -3.3167590390  MEMB      92              0.0000000000
     13180       120  DOPC      H13Y           18.0216529890      -29.5786787779       -2.3280260991  MEMB      92              0.0000000000
     13181       120  DOPC      C314           15.9857830655      -29.7546744045       -1.8386184059  MEMB      92              0.0000000000
     13182       120  DOPC      H14X           15.8362026593      -30.7862360478       -1.4369194913  MEMB      92              0.0000000000
     13183       120  DOPC      H14Y           16.3654756939      -29.2103480405       -0.9417145720  MEMB      92              0.0000000000
     13184       120  DOPC      C315           14.6822004857      -29.0575750657       -2.2720671175  MEMB      92              0.0000000000
     13185       120  DOPC      H15X           13.8321036370      -29.7616057396       -2.2378484410  MEMB      92              0.0000000000
     13186       120  DOPC      H15Y           14.7568376256      -28.5980457032       -3.2744764315  MEMB      92              0.0000000000
     13187       120  DOPC      C316           14.2346050399      -28.0846056593       -1.2297271139  MEMB      92              0.0000000000
     13188       120  DOPC      H16X           13.8796551489      -28.7902496780       -0.4382450250  MEMB      92              0.0000000000
     13189       120  DOPC      H16Y           15.1623244115      -27.5490693310       -0.9426473403  MEMB      92              0.0000000000
     13190       120  DOPC      C317           13.1326979233      -27.0467315220       -1.4538369902  MEMB      92              0.0000000000
     13191       120  DOPC      H17X           13.4810928918      -26.1607594644       -0.8698589313  MEMB      92              0.0000000000
     13192       120  DOPC      H17Y           13.0406470887      -26.7202374163       -2.5064266681  MEMB      92              0.0000000000
     13193       120  DOPC      C318           11.7785342430      -27.3959880533       -0.8391705520  MEMB      92              0.0000000000
     13194       120  DOPC      H18X           11.3270045018      -28.2970418235       -1.3061469161  MEMB      92              0.0000000000
     13195       120  DOPC      H18Y           11.8853005741      -27.5819555891        0.2534009902  MEMB      92              0.0000000000
     13196       120  DOPC      H18Z           11.0830920509      -26.5360960171       -0.9652427114  MEMB      92              0.0000000000
     13197       121  DOPC      N              26.8153901333        5.8776253722      -20.1494531854  MEMB      93              0.0000000000
     13198       121  DOPC      C12            26.6201570503        6.4064044484      -18.7353961522  MEMB      93              0.0000000000
     13199       121  DOPC      H12A           27.1733894963        7.3236575609      -18.6024120117  MEMB      93              0.0000000000
     13200       121  DOPC      H12B           27.0371654159        5.6941004817      -18.0378494540  MEMB      93              0.0000000000
     13201       121  DOPC      C13            26.3562879447        4.4572984602      -20.2125526229  MEMB      93              0.0000000000
     13202       121  DOPC      H13A           25.3818608536        4.4270519175      -19.7130296282  MEMB      93              0.0000000000
     13203       121  DOPC      H13B           26.2352023774        4.1500652835      -21.2414288513  MEMB      93              0.0000000000
     13204       121  DOPC      H13C           27.0098734741        3.7900280661      -19.6761308034  MEMB      93              0.0000000000
     13205       121  DOPC      C14            28.2501809254        5.9690119963      -20.5332534894  MEMB      93              0.0000000000
     13206       121  DOPC      H14A           28.5155607260        6.9985877520      -20.7663445613  MEMB      93              0.0000000000
     13207       121  DOPC      H14B           28.8868230163        5.6014319117      -19.7418339538  MEMB      93              0.0000000000
     13208       121  DOPC      H14C           28.4445961046        5.4158131368      -21.4597992644  MEMB      93              0.0000000000
     13209       121  DOPC      C15            25.9366353619        6.6522794726      -21.0895110518  MEMB      93              0.0000000000
     13210       121  DOPC      H15A           26.3029819718        7.6584915089      -21.2900310631  MEMB      93              0.0000000000
     13211       121  DOPC      H15B           24.9416493961        6.7481487087      -20.6466086892  MEMB      93              0.0000000000
     13212       121  DOPC      H15C           25.8163036236        6.1222023619      -22.0230865293  MEMB      93              0.0000000000
     13213       121  DOPC      C11            25.1634150234        6.6440477680      -18.2977970950  MEMB      93              0.0000000000
     13214       121  DOPC      H11A           25.1505828510        7.0513020188      -17.2654431356  MEMB      93              0.0000000000
     13215       121  DOPC      H11B           24.7197202834        7.4373076608      -18.9476996234  MEMB      93              0.0000000000
     13216       121  DOPC      P              22.8537850514        5.4920777631      -18.3983592534  MEMB      93              0.0000000000
     13217       121  DOPC      O13            22.4218195659        4.3063309397      -19.1682127773  MEMB      93              0.0000000000
     13218       121  DOPC      O14            22.4857878332        6.8259866967      -18.9162274014  MEMB      93              0.0000000000
     13219       121  DOPC      O12            24.4409288455        5.4108177605      -18.3503016614  MEMB      93              0.0000000000
     13220       121  DOPC      O11            22.4890615844        5.3823616904      -16.8744556119  MEMB      93              0.0000000000
     13221       121  DOPC      C1             22.7945423539        4.2265098915      -16.1034196545  MEMB      93              0.0000000000
     13222       121  DOPC      HA             23.4623528440        3.5014950724      -16.6333727187  MEMB      93              0.0000000000
     13223       121  DOPC      HB             21.8510017598        3.6829344958      -15.8622595588  MEMB      93              0.0000000000
     13224       121  DOPC      C2             23.5160253044        4.6566939567      -14.8027108053  MEMB      93              0.0000000000
     13225       121  DOPC      HS             23.8228728530        3.7398035886      -14.2593647356  MEMB      93              0.0000000000
     13226       121  DOPC      O21            22.6968921819        5.5069198654      -13.9669127628  MEMB      93              0.0000000000
     13227       121  DOPC      C21            21.8842315502        4.7607022122      -13.2362770017  MEMB      93              0.0000000000
     13228       121  DOPC      O22            21.8100178036        3.5479511432      -13.2841189882  MEMB      93              0.0000000000
     13229       121  DOPC      C22            21.1721682814        5.6278865614      -12.2041896266  MEMB      93              0.0000000000
     13230       121  DOPC      H2R            20.2006998536        5.9439234088      -12.6343708307  MEMB      93              0.0000000000
     13231       121  DOPC      H2S            21.7915674919        6.5304819221      -12.0322496061  MEMB      93              0.0000000000
     13232       121  DOPC      C3             24.8391081834        5.3844857378      -15.0747897048  MEMB      93              0.0000000000
     13233       121  DOPC      HX             24.6088090321        6.4313480569      -15.3697678875  MEMB      93              0.0000000000
     13234       121  DOPC      HY             25.3580986136        4.8667437147      -15.9175440180  MEMB      93              0.0000000000
     13235       121  DOPC      O31            25.6075429321        5.3439595334      -13.8592509806  MEMB      93              0.0000000000
     13236       121  DOPC      C31            26.8612661777        5.7339149957      -14.0032164572  MEMB      93              0.0000000000
     13237       121  DOPC      O32            27.3743109929        6.0367140958      -15.0689360517  MEMB      93              0.0000000000
     13238       121  DOPC      C32            27.5493086000        5.7629909579      -12.6371916320  MEMB      93              0.0000000000
     13239       121  DOPC      H2X            26.9824445869        5.1105188065      -11.9418232451  MEMB      93              0.0000000000
     13240       121  DOPC      H2Y            28.5721278145        5.3451680917      -12.7519867026  MEMB      93              0.0000000000
     13241       121  DOPC      C23            20.9778644703        4.8536577203      -10.8722393190  MEMB      93              0.0000000000
     13242       121  DOPC      H3R            20.2450520266        4.0289631887      -11.0161248346  MEMB      93              0.0000000000
     13243       121  DOPC      H3S            20.5556400305        5.5560519375      -10.1187070808  MEMB      93              0.0000000000
     13244       121  DOPC      C24            22.3069409673        4.2853540254      -10.3305296822  MEMB      93              0.0000000000
     13245       121  DOPC      H4R            23.0427947099        5.0907397056      -10.3969678153  MEMB      93              0.0000000000
     13246       121  DOPC      H4S            22.6504046729        3.4292222026      -10.9551621174  MEMB      93              0.0000000000
     13247       121  DOPC      C25            22.3071589923        3.8620984005       -8.8605175860  MEMB      93              0.0000000000
     13248       121  DOPC      H5R            21.4972041774        3.1299016158       -8.8077080761  MEMB      93              0.0000000000
     13249       121  DOPC      H5S            22.0006546195        4.7024098854       -8.2071890066  MEMB      93              0.0000000000
     13250       121  DOPC      C26            23.6288325376        3.2380540142       -8.3377027699  MEMB      93              0.0000000000
     13251       121  DOPC      H6R            23.8558735032        2.3182575353       -8.9231846757  MEMB      93              0.0000000000
     13252       121  DOPC      H6S            23.4806427647        2.9383695677       -7.2769488283  MEMB      93              0.0000000000
     13253       121  DOPC      C27            24.8716944951        4.1336386101       -8.4252442651  MEMB      93              0.0000000000
     13254       121  DOPC      H7R            24.6387791001        5.1293365073       -7.9928732321  MEMB      93              0.0000000000
     13255       121  DOPC      H7S            25.0793007968        4.2366704776       -9.5126472482  MEMB      93              0.0000000000
     13256       121  DOPC      C28            26.1395987317        3.5976605795       -7.7183916468  MEMB      93              0.0000000000
     13257       121  DOPC      H8R            26.4786658082        2.6953553083       -8.2507313040  MEMB      93              0.0000000000
     13258       121  DOPC      H8S            25.8741862018        3.2903829383       -6.6834431973  MEMB      93              0.0000000000
     13259       121  DOPC      C29            27.2879879128        4.5720241887       -7.7297492453  MEMB      93              0.0000000000
     13260       121  DOPC      H9R            27.9981425151        4.4505219230       -8.5641633060  MEMB      93              0.0000000000
     13261       121  DOPC      C210           27.5396893351        5.5130448627       -6.8089068537  MEMB      93              0.0000000000
     13262       121  DOPC      H10R           28.4178987326        6.1652330836       -6.9413727576  MEMB      93              0.0000000000
     13263       121  DOPC      C211           26.7397797983        5.7977586759       -5.5659235211  MEMB      93              0.0000000000
     13264       121  DOPC      H11R           25.8198328406        5.1875487059       -5.5033821763  MEMB      93              0.0000000000
     13265       121  DOPC      H11S           26.4010694301        6.8509134573       -5.5585748179  MEMB      93              0.0000000000
     13266       121  DOPC      C212           27.6722858018        5.4847467257       -4.3822490585  MEMB      93              0.0000000000
     13267       121  DOPC      H12R           28.6805014518        5.9208515016       -4.5752042867  MEMB      93              0.0000000000
     13268       121  DOPC      H12S           27.7905943709        4.3783507753       -4.3219838981  MEMB      93              0.0000000000
     13269       121  DOPC      C213           27.2355409089        6.0087889595       -3.0080185322  MEMB      93              0.0000000000
     13270       121  DOPC      H13R           26.8256419138        5.1568815845       -2.4268356895  MEMB      93              0.0000000000
     13271       121  DOPC      H13S           26.4165216531        6.7532867664       -3.1122580348  MEMB      93              0.0000000000
     13272       121  DOPC      C214           28.3924512474        6.6418680588       -2.2089572856  MEMB      93              0.0000000000
     13273       121  DOPC      H14R           28.7397008017        7.5660638073       -2.7160274372  MEMB      93              0.0000000000
     13274       121  DOPC      H14S           29.2582632116        5.9446250403       -2.1634107315  MEMB      93              0.0000000000
     13275       121  DOPC      C215           27.9262272735        7.0070477797       -0.7999043907  MEMB      93              0.0000000000
     13276       121  DOPC      H15R           27.7073706305        6.0721696679       -0.2364589758  MEMB      93              0.0000000000
     13277       121  DOPC      H15S           26.9673777553        7.5660825027       -0.9099401649  MEMB      93              0.0000000000
     13278       121  DOPC      C216           28.8793102498        7.8883836574        0.0194762174  MEMB      93              0.0000000000
     13279       121  DOPC      H16R           29.2118287942        8.7724267048       -0.5677291145  MEMB      93              0.0000000000
     13280       121  DOPC      H16S           29.7800096468        7.3070658772        0.3240713769  MEMB      93              0.0000000000
     13281       121  DOPC      C217           28.1381893863        8.3821850311        1.2626372328  MEMB      93              0.0000000000
     13282       121  DOPC      H17R           27.8229871164        7.4668819216        1.8101104071  MEMB      93              0.0000000000
     13283       121  DOPC      H17S           27.2259581707        8.9354128564        0.9340514828  MEMB      93              0.0000000000
     13284       121  DOPC      C218           28.9310733620        9.2749555862        2.2103253868  MEMB      93              0.0000000000
     13285       121  DOPC      H18R           28.7261333237        9.0090697300        3.2741866885  MEMB      93              0.0000000000
     13286       121  DOPC      H18S           28.6730155974       10.3405650824        2.0599109505  MEMB      93              0.0000000000
     13287       121  DOPC      H18T           30.0134973990        9.1546200181        2.0208944481  MEMB      93              0.0000000000
     13288       121  DOPC      C33            27.6553602154        7.1977864453      -12.0704313826  MEMB      93              0.0000000000
     13289       121  DOPC      H3X            26.8940961085        7.8602827307      -12.5300951430  MEMB      93              0.0000000000
     13290       121  DOPC      H3Y            28.6428523576        7.6260906443      -12.3584438322  MEMB      93              0.0000000000
     13291       121  DOPC      C34            27.5196687957        7.2844213246      -10.5428160815  MEMB      93              0.0000000000
     13292       121  DOPC      H4X            27.7778034518        8.3186063068      -10.2504107782  MEMB      93              0.0000000000
     13293       121  DOPC      H4Y            28.3049200930        6.6411745401      -10.0804204269  MEMB      93              0.0000000000
     13294       121  DOPC      C35            26.1701081037        6.8484022869       -9.9282650077  MEMB      93              0.0000000000
     13295       121  DOPC      H5X            26.0456711889        7.2566208042       -8.9026430821  MEMB      93              0.0000000000
     13296       121  DOPC      H5Y            26.3027483507        5.7549461879       -9.8194149527  MEMB      93              0.0000000000
     13297       121  DOPC      C36            24.8672309027        7.0184439629      -10.7308513535  MEMB      93              0.0000000000
     13298       121  DOPC      H6X            25.0469708475        7.4962931639      -11.7123713165  MEMB      93              0.0000000000
     13299       121  DOPC      H6Y            24.5494960197        5.9980356650      -11.0066120588  MEMB      93              0.0000000000
     13300       121  DOPC      C37            23.7208693624        7.8132705948      -10.0565083501  MEMB      93              0.0000000000
     13301       121  DOPC      H7X            24.0800208031        8.8473398595       -9.9885677569  MEMB      93              0.0000000000
     13302       121  DOPC      H7Y            22.8502791406        7.8121763395      -10.7458823420  MEMB      93              0.0000000000
     13303       121  DOPC      C38            23.2485722962        7.4907465169       -8.6242571431  MEMB      93              0.0000000000
     13304       121  DOPC      H8X            24.0506557295        7.7874861430       -7.9159810051  MEMB      93              0.0000000000
     13305       121  DOPC      H8Y            23.1025000735        6.4062306779       -8.4913284453  MEMB      93              0.0000000000
     13306       121  DOPC      C39            21.9443847117        8.2191032960       -8.3564007155  MEMB      93              0.0000000000
     13307       121  DOPC      H9X            21.1484141169        7.9758470534       -9.0740816506  MEMB      93              0.0000000000
     13308       121  DOPC      C310           21.6344543233        9.0285281244       -7.3202626636  MEMB      93              0.0000000000
     13309       121  DOPC      H10X           20.6232781919        9.4624852904       -7.2703778894  MEMB      93              0.0000000000
     13310       121  DOPC      C311           22.5326314871        9.3983720818       -6.1654828010  MEMB      93              0.0000000000
     13311       121  DOPC      H11X           22.3137957691       10.4080241133       -5.7806123046  MEMB      93              0.0000000000
     13312       121  DOPC      H11Y           23.5953086970        9.4014689507       -6.4533161346  MEMB      93              0.0000000000
     13313       121  DOPC      C312           22.4063970640        8.4128960672       -5.0070035746  MEMB      93              0.0000000000
     13314       121  DOPC      H12X           21.3819567371        8.4524455396       -4.5773133452  MEMB      93              0.0000000000
     13315       121  DOPC      H12Y           23.1226918668        8.7032639265       -4.2034262852  MEMB      93              0.0000000000
     13316       121  DOPC      C313           22.7218831038        6.9963445603       -5.4723474220  MEMB      93              0.0000000000
     13317       121  DOPC      H13X           21.9367721544        6.6396424914       -6.1787116934  MEMB      93              0.0000000000
     13318       121  DOPC      H13Y           23.7066947270        6.9693105346       -5.9914641824  MEMB      93              0.0000000000
     13319       121  DOPC      C314           22.7732608966        6.0314380743       -4.3253306502  MEMB      93              0.0000000000
     13320       121  DOPC      H14X           23.6125820248        6.3223082749       -3.6531160629  MEMB      93              0.0000000000
     13321       121  DOPC      H14Y           21.8112255993        6.1004666818       -3.7644821899  MEMB      93              0.0000000000
     13322       121  DOPC      C315           22.9652071405        4.6033464128       -4.8166060038  MEMB      93              0.0000000000
     13323       121  DOPC      H15X           24.0077447790        4.4420564568       -5.1499981245  MEMB      93              0.0000000000
     13324       121  DOPC      H15Y           22.3241472296        4.4372824129       -5.7084577566  MEMB      93              0.0000000000
     13325       121  DOPC      C316           22.6287707295        3.6275192942       -3.6985542394  MEMB      93              0.0000000000
     13326       121  DOPC      H16X           21.5269881230        3.6206554898       -3.5624342766  MEMB      93              0.0000000000
     13327       121  DOPC      H16Y           22.9552328648        2.5987540224       -3.9687523387  MEMB      93              0.0000000000
     13328       121  DOPC      C317           23.2243462220        4.0705682708       -2.3676947611  MEMB      93              0.0000000000
     13329       121  DOPC      H17X           24.3230009252        4.1592277371       -2.4886975514  MEMB      93              0.0000000000
     13330       121  DOPC      H17Y           22.8544834082        5.0770398445       -2.0771570108  MEMB      93              0.0000000000
     13331       121  DOPC      C318           22.8392552369        3.1536257810       -1.2291270742  MEMB      93              0.0000000000
     13332       121  DOPC      H18X           23.1119191755        3.6206108157       -0.2590393232  MEMB      93              0.0000000000
     13333       121  DOPC      H18Y           21.7430698194        2.9957351386       -1.2415904878  MEMB      93              0.0000000000
     13334       121  DOPC      H18Z           23.3316902229        2.1645374716       -1.3159431595  MEMB      93              0.0000000000
     13335       122  DOPC      N              24.7262466267       -1.4214520276      -19.2933695170  MEMB      94              0.0000000000
     13336       122  DOPC      C12            25.5389418463       -2.1744546489      -18.2458697951  MEMB      94              0.0000000000
     13337       122  DOPC      H12A           25.5817823871       -1.6188467157      -17.3210467228  MEMB      94              0.0000000000
     13338       122  DOPC      H12B           26.5715001906       -2.2676930824      -18.6127843105  MEMB      94              0.0000000000
     13339       122  DOPC      C13            25.2429233364       -0.0409453765      -19.4895054744  MEMB      94              0.0000000000
     13340       122  DOPC      H13A           24.6577160150        0.4725926064      -20.2459510418  MEMB      94              0.0000000000
     13341       122  DOPC      H13B           25.1716914382        0.5200577219      -18.5666676883  MEMB      94              0.0000000000
     13342       122  DOPC      H13C           26.2698154087       -0.0634222255      -19.8171466474  MEMB      94              0.0000000000
     13343       122  DOPC      C14            23.2832906315       -1.4220410085      -18.9154237870  MEMB      94              0.0000000000
     13344       122  DOPC      H14A           22.9885782128       -2.4476933925      -18.7026653294  MEMB      94              0.0000000000
     13345       122  DOPC      H14B           23.1148644073       -0.8310578224      -18.0223839639  MEMB      94              0.0000000000
     13346       122  DOPC      H14C           22.6557336055       -1.0369916915      -19.7146585882  MEMB      94              0.0000000000
     13347       122  DOPC      C15            24.8486498248       -2.1736643725      -20.5761874318  MEMB      94              0.0000000000
     13348       122  DOPC      H15A           24.4871483643       -3.1964190591      -20.3953724256  MEMB      94              0.0000000000
     13349       122  DOPC      H15B           25.8883051504       -2.3707629786      -20.8321668019  MEMB      94              0.0000000000
     13350       122  DOPC      H15C           24.3256364314       -1.7450337996      -21.4139338536  MEMB      94              0.0000000000
     13351       122  DOPC      C11            25.1362686923       -3.6333410366      -17.9001753149  MEMB      94              0.0000000000
     13352       122  DOPC      H11A           25.8217334997       -4.0326955306      -17.1069877538  MEMB      94              0.0000000000
     13353       122  DOPC      H11B           24.1180202478       -3.6628771543      -17.4628863997  MEMB      94              0.0000000000
     13354       122  DOPC      P              26.5475931862       -4.8989358438      -19.6934360401  MEMB      94              0.0000000000
     13355       122  DOPC      O13            26.5647251294       -4.6021764263      -21.1476888750  MEMB      94              0.0000000000
     13356       122  DOPC      O14            26.8583561762       -6.2726439208      -19.2611601221  MEMB      94              0.0000000000
     13357       122  DOPC      O12            25.1645524936       -4.4492579241      -19.0655444674  MEMB      94              0.0000000000
     13358       122  DOPC      O11            27.5345606019       -3.8539569208      -19.0675400073  MEMB      94              0.0000000000
     13359       122  DOPC      C1             28.9386141500       -4.0658765464      -19.1067997581  MEMB      94              0.0000000000
     13360       122  DOPC      HA             29.4332289393       -3.2859977423      -19.7270140125  MEMB      94              0.0000000000
     13361       122  DOPC      HB             29.2071367560       -5.0542816404      -19.5568334028  MEMB      94              0.0000000000
     13362       122  DOPC      C2             29.5103542725       -4.0331877649      -17.6752356739  MEMB      94              0.0000000000
     13363       122  DOPC      HS             30.5690809350       -4.3744733523      -17.7097697275  MEMB      94              0.0000000000
     13364       122  DOPC      O21            28.6921519343       -4.8943287138      -16.8480479545  MEMB      94              0.0000000000
     13365       122  DOPC      C21            29.1703452056       -5.1039726200      -15.6347933280  MEMB      94              0.0000000000
     13366       122  DOPC      O22            30.2929617451       -4.7869534636      -15.2766236748  MEMB      94              0.0000000000
     13367       122  DOPC      C22            28.1852787018       -5.9183677984      -14.7988433522  MEMB      94              0.0000000000
     13368       122  DOPC      H2R            28.5938192237       -6.9453575089      -14.6923936358  MEMB      94              0.0000000000
     13369       122  DOPC      H2S            27.2116096040       -5.9684371324      -15.3302483906  MEMB      94              0.0000000000
     13370       122  DOPC      C3             29.5805897319       -2.5828525788      -17.1103048028  MEMB      94              0.0000000000
     13371       122  DOPC      HX             30.4074771523       -2.0805969077      -17.6591649146  MEMB      94              0.0000000000
     13372       122  DOPC      HY             29.8971289460       -2.6205776721      -16.0458035144  MEMB      94              0.0000000000
     13373       122  DOPC      O31            28.4138693010       -1.7655987400      -17.2903334795  MEMB      94              0.0000000000
     13374       122  DOPC      C31            27.6619290927       -1.6985894993      -16.2173036663  MEMB      94              0.0000000000
     13375       122  DOPC      O32            27.4026149719       -2.5907292880      -15.4345875308  MEMB      94              0.0000000000
     13376       122  DOPC      C32            27.3354778445       -0.2206249458      -16.0813041086  MEMB      94              0.0000000000
     13377       122  DOPC      H2X            28.3191957474        0.2800666474      -16.0359740330  MEMB      94              0.0000000000
     13378       122  DOPC      H2Y            26.8182370064        0.1480071857      -16.9842072236  MEMB      94              0.0000000000
     13379       122  DOPC      C23            27.9818994492       -5.2996651105      -13.3977379353  MEMB      94              0.0000000000
     13380       122  DOPC      H3R            27.7010867621       -4.2259513930      -13.5117565052  MEMB      94              0.0000000000
     13381       122  DOPC      H3S            28.9294733730       -5.3430116283      -12.8134579165  MEMB      94              0.0000000000
     13382       122  DOPC      C24            26.8562475608       -5.9925624819      -12.6182184465  MEMB      94              0.0000000000
     13383       122  DOPC      H4R            27.1449476879       -7.0404599601      -12.3888567016  MEMB      94              0.0000000000
     13384       122  DOPC      H4S            25.9477425839       -6.0232926499      -13.2605772191  MEMB      94              0.0000000000
     13385       122  DOPC      C25            26.4954605684       -5.2655732894      -11.3169418830  MEMB      94              0.0000000000
     13386       122  DOPC      H5R            26.3263301250       -4.1974441839      -11.5559420904  MEMB      94              0.0000000000
     13387       122  DOPC      H5S            27.3433814627       -5.3282324480      -10.6050102876  MEMB      94              0.0000000000
     13388       122  DOPC      C26            25.2153614407       -5.8161916544      -10.6839202800  MEMB      94              0.0000000000
     13389       122  DOPC      H6R            25.3245548773       -6.9109132688      -10.5266101965  MEMB      94              0.0000000000
     13390       122  DOPC      H6S            24.4015470127       -5.6877965022      -11.4224444585  MEMB      94              0.0000000000
     13391       122  DOPC      C27            24.7883709054       -5.1078171640       -9.3855544589  MEMB      94              0.0000000000
     13392       122  DOPC      H7R            23.8013476834       -5.5263761783       -9.0798852408  MEMB      94              0.0000000000
     13393       122  DOPC      H7S            24.6385002490       -4.0243933493       -9.5890237029  MEMB      94              0.0000000000
     13394       122  DOPC      C28            25.7727441563       -5.2528188313       -8.2105734928  MEMB      94              0.0000000000
     13395       122  DOPC      H8R            25.2349897772       -4.9418207305       -7.2879187220  MEMB      94              0.0000000000
     13396       122  DOPC      H8S            26.6332096496       -4.5635811216       -8.3477289834  MEMB      94              0.0000000000
     13397       122  DOPC      C29            26.2017119874       -6.6885111674       -8.1093072990  MEMB      94              0.0000000000
     13398       122  DOPC      H9R            25.3746747969       -7.3634317936       -8.2851593751  MEMB      94              0.0000000000
     13399       122  DOPC      C210           27.4326394445       -7.2085124186       -8.0238080834  MEMB      94              0.0000000000
     13400       122  DOPC      H10R           27.5585482549       -8.3029298603       -7.9679667602  MEMB      94              0.0000000000
     13401       122  DOPC      C211           28.6767108859       -6.3742456819       -8.0080188913  MEMB      94              0.0000000000
     13402       122  DOPC      H11R           28.6385139265       -5.6221061952       -8.8267906231  MEMB      94              0.0000000000
     13403       122  DOPC      H11S           29.5758328467       -7.0014910988       -8.1879631231  MEMB      94              0.0000000000
     13404       122  DOPC      C212           28.7882780819       -5.6424450204       -6.6636437835  MEMB      94              0.0000000000
     13405       122  DOPC      H12R           29.0709575865       -6.3757309811       -5.8755903161  MEMB      94              0.0000000000
     13406       122  DOPC      H12S           27.8129119673       -5.1941003199       -6.3620711170  MEMB      94              0.0000000000
     13407       122  DOPC      C213           29.7979285170       -4.4948682695       -6.7042173987  MEMB      94              0.0000000000
     13408       122  DOPC      H13R           29.4223740447       -3.6921437967       -7.3767149357  MEMB      94              0.0000000000
     13409       122  DOPC      H13S           30.7335148752       -4.8916808466       -7.1525639902  MEMB      94              0.0000000000
     13410       122  DOPC      C214           30.0815198330       -3.9447263525       -5.2967248159  MEMB      94              0.0000000000
     13411       122  DOPC      H14R           31.1604453143       -4.0530838342       -5.0605827597  MEMB      94              0.0000000000
     13412       122  DOPC      H14S           29.5228428882       -4.5796327256       -4.5721760207  MEMB      94              0.0000000000
     13413       122  DOPC      C215           29.6708038111       -2.4832855087       -5.0512404801  MEMB      94              0.0000000000
     13414       122  DOPC      H15R           28.7154187939       -2.2879822180       -5.5795544636  MEMB      94              0.0000000000
     13415       122  DOPC      H15S           30.4193640646       -1.7858660614       -5.4832960220  MEMB      94              0.0000000000
     13416       122  DOPC      C216           29.5161775918       -2.2095062251       -3.5437269493  MEMB      94              0.0000000000
     13417       122  DOPC      H16R           30.5223975426       -2.2371398384       -3.0719169912  MEMB      94              0.0000000000
     13418       122  DOPC      H16S           28.9179927412       -3.0289563739       -3.0902359731  MEMB      94              0.0000000000
     13419       122  DOPC      C217           28.8435450041       -0.8764118904       -3.1958833447  MEMB      94              0.0000000000
     13420       122  DOPC      H17R           27.9256742045       -0.7409810053       -3.8081754677  MEMB      94              0.0000000000
     13421       122  DOPC      H17S           29.5448175285       -0.0607661602       -3.4716881514  MEMB      94              0.0000000000
     13422       122  DOPC      C218           28.4681264351       -0.7360889797       -1.7170033769  MEMB      94              0.0000000000
     13423       122  DOPC      H18R           28.2460931550        0.3275314287       -1.4985940449  MEMB      94              0.0000000000
     13424       122  DOPC      H18S           29.2994645279       -1.0527759496       -1.0521862791  MEMB      94              0.0000000000
     13425       122  DOPC      H18T           27.5695289960       -1.3329979017       -1.4613046610  MEMB      94              0.0000000000
     13426       122  DOPC      C33            26.5547251189        0.1265403212      -14.8140662765  MEMB      94              0.0000000000
     13427       122  DOPC      H3X            26.8373052734        1.1611257857      -14.5030979043  MEMB      94              0.0000000000
     13428       122  DOPC      H3Y            26.8131014327       -0.5311984649      -13.9510371821  MEMB      94              0.0000000000
     13429       122  DOPC      C34            25.0548322373        0.1230076988      -15.0981248170  MEMB      94              0.0000000000
     13430       122  DOPC      H4X            24.6633558931       -0.9159127023      -15.0392372221  MEMB      94              0.0000000000
     13431       122  DOPC      H4Y            24.8702433090        0.4899118577      -16.1318726251  MEMB      94              0.0000000000
     13432       122  DOPC      C35            24.3301777653        1.0590470824      -14.1327382435  MEMB      94              0.0000000000
     13433       122  DOPC      H5X            23.2341944287        1.0567251725      -14.3397128283  MEMB      94              0.0000000000
     13434       122  DOPC      H5Y            24.7243006986        2.0724314780      -14.3444437492  MEMB      94              0.0000000000
     13435       122  DOPC      C36            24.6242275089        0.7778374013      -12.6544545526  MEMB      94              0.0000000000
     13436       122  DOPC      H6X            25.6658195415        1.0530580983      -12.3909579053  MEMB      94              0.0000000000
     13437       122  DOPC      H6Y            23.9354905625        1.4082387150      -12.0411994565  MEMB      94              0.0000000000
     13438       122  DOPC      C37            24.3949724058       -0.6884248822      -12.2925591639  MEMB      94              0.0000000000
     13439       122  DOPC      H7X            23.3259309077       -0.7921151358      -12.5165119485  MEMB      94              0.0000000000
     13440       122  DOPC      H7Y            24.9300169733       -1.4017249524      -12.9509251819  MEMB      94              0.0000000000
     13441       122  DOPC      C38            24.6758246809       -1.0294761386      -10.8226842419  MEMB      94              0.0000000000
     13442       122  DOPC      H8X            24.0482312656       -1.9001301075      -10.5409207554  MEMB      94              0.0000000000
     13443       122  DOPC      H8Y            24.3480197798       -0.1595048931      -10.2095922130  MEMB      94              0.0000000000
     13444       122  DOPC      C39            26.0822671055       -1.4658674662      -10.5389010621  MEMB      94              0.0000000000
     13445       122  DOPC      H9X            26.4212109031       -2.2976707081      -11.1640043626  MEMB      94              0.0000000000
     13446       122  DOPC      C310           26.9300480467       -0.9185936181       -9.6613156392  MEMB      94              0.0000000000
     13447       122  DOPC      H10X           27.9395378590       -1.3451547310       -9.5553431202  MEMB      94              0.0000000000
     13448       122  DOPC      C311           26.5984821036        0.2634536749       -8.8003329312  MEMB      94              0.0000000000
     13449       122  DOPC      H11X           26.2307520362        1.0629544995       -9.4855562096  MEMB      94              0.0000000000
     13450       122  DOPC      H11Y           27.5272718680        0.6593728335       -8.3335275892  MEMB      94              0.0000000000
     13451       122  DOPC      C312           25.5172668287        0.0886794973       -7.7090186724  MEMB      94              0.0000000000
     13452       122  DOPC      H12X           24.6305346581       -0.4607690770       -8.0892684440  MEMB      94              0.0000000000
     13453       122  DOPC      H12Y           25.1528809498        1.1052129884       -7.4389414671  MEMB      94              0.0000000000
     13454       122  DOPC      C313           26.0196237246       -0.5464584467       -6.4105504261  MEMB      94              0.0000000000
     13455       122  DOPC      H13X           27.1311885003       -0.5333767728       -6.3816566442  MEMB      94              0.0000000000
     13456       122  DOPC      H13Y           25.6576633923        0.0755404680       -5.5581688816  MEMB      94              0.0000000000
     13457       122  DOPC      C314           25.5067436693       -1.9760322113       -6.1965249381  MEMB      94              0.0000000000
     13458       122  DOPC      H14X           24.4063906208       -2.0049730975       -6.3520349975  MEMB      94              0.0000000000
     13459       122  DOPC      H14Y           25.9748420238       -2.6461087188       -6.9511329963  MEMB      94              0.0000000000
     13460       122  DOPC      C315           25.8332089309       -2.4536800933       -4.7780855247  MEMB      94              0.0000000000
     13461       122  DOPC      H15X           25.4139142882       -1.7325532072       -4.0443495134  MEMB      94              0.0000000000
     13462       122  DOPC      H15Y           26.9334839225       -2.4353977206       -4.6611599313  MEMB      94              0.0000000000
     13463       122  DOPC      C316           25.3781951053       -3.8747771631       -4.4358189362  MEMB      94              0.0000000000
     13464       122  DOPC      H16X           24.2748778097       -3.9023251680       -4.3062763260  MEMB      94              0.0000000000
     13465       122  DOPC      H16Y           25.6471104310       -4.5517793089       -5.2749507387  MEMB      94              0.0000000000
     13466       122  DOPC      C317           26.0764602949       -4.4011687341       -3.1728448987  MEMB      94              0.0000000000
     13467       122  DOPC      H17X           25.8125604777       -5.4725542727       -3.0330739271  MEMB      94              0.0000000000
     13468       122  DOPC      H17Y           27.1765941897       -4.3570121956       -3.3461687967  MEMB      94              0.0000000000
     13469       122  DOPC      C318           25.7346155619       -3.6182909698       -1.9034986807  MEMB      94              0.0000000000
     13470       122  DOPC      H18X           24.6560898146       -3.7289772146       -1.6603382985  MEMB      94              0.0000000000
     13471       122  DOPC      H18Y           26.3381321817       -3.9796905169       -1.0434457588  MEMB      94              0.0000000000
     13472       122  DOPC      H18Z           25.9437122759       -2.5372720438       -2.0409483767  MEMB      94              0.0000000000
     13473       123  DOPC      N             -15.9144463409       22.5930103009      -20.3442066428  MEMB      95              0.0000000000
     13474       123  DOPC      C12           -15.8869128570       22.3080600744      -18.8460569769  MEMB      95              0.0000000000
     13475       123  DOPC      H12A          -15.7273694505       23.2526184736      -18.3278187136  MEMB      95              0.0000000000
     13476       123  DOPC      H12B          -14.9662489234       21.7700629870      -18.6202587047  MEMB      95              0.0000000000
     13477       123  DOPC      C13           -15.7531979592       21.3046241522      -21.0823859046  MEMB      95              0.0000000000
     13478       123  DOPC      H13A          -14.7217410584       20.9863026060      -21.1172557595  MEMB      95              0.0000000000
     13479       123  DOPC      H13B          -16.3218932220       20.5450122144      -20.5416695626  MEMB      95              0.0000000000
     13480       123  DOPC      H13C          -16.1264812974       21.3859733679      -22.0964190377  MEMB      95              0.0000000000
     13481       123  DOPC      C14           -14.7727908228       23.5067543921      -20.6307613171  MEMB      95              0.0000000000
     13482       123  DOPC      H14A          -13.8440243655       23.0702970981      -20.2617901324  MEMB      95              0.0000000000
     13483       123  DOPC      H14B          -14.6694143228       23.7756684144      -21.6709886953  MEMB      95              0.0000000000
     13484       123  DOPC      H14C          -14.8406302939       24.4090440565      -20.0201453027  MEMB      95              0.0000000000
     13485       123  DOPC      C15           -17.1771663259       23.2453719654      -20.8159298548  MEMB      95              0.0000000000
     13486       123  DOPC      H15A          -17.2829304422       24.2131784634      -20.3678296797  MEMB      95              0.0000000000
     13487       123  DOPC      H15B          -18.0156513968       22.6192097149      -20.5487516559  MEMB      95              0.0000000000
     13488       123  DOPC      H15C          -17.1458665361       23.3580307114      -21.9020963014  MEMB      95              0.0000000000
     13489       123  DOPC      C11           -17.0474976826       21.5244606402      -18.1769816903  MEMB      95              0.0000000000
     13490       123  DOPC      H11A          -16.7628859674       21.4130051439      -17.0941188459  MEMB      95              0.0000000000
     13491       123  DOPC      H11B          -17.9587414408       22.1592543038      -18.2015289211  MEMB      95              0.0000000000
     13492       123  DOPC      P             -17.5282456742       18.9493348312      -17.9327964200  MEMB      95              0.0000000000
     13493       123  DOPC      O13           -16.2536298974       18.7018915639      -17.2200067324  MEMB      95              0.0000000000
     13494       123  DOPC      O14           -18.0495664408       17.8894606623      -18.8262621279  MEMB      95              0.0000000000
     13495       123  DOPC      O12           -17.3133917868       20.2643869860      -18.8199321095  MEMB      95              0.0000000000
     13496       123  DOPC      O11           -18.6814455383       19.4061092274      -16.9415606122  MEMB      95              0.0000000000
     13497       123  DOPC      C1            -19.8793355540       20.0740748205      -17.3790149995  MEMB      95              0.0000000000
     13498       123  DOPC      HA            -20.7375622219       19.3632319632      -17.3629880927  MEMB      95              0.0000000000
     13499       123  DOPC      HB            -19.7921796883       20.4881252472      -18.4102442947  MEMB      95              0.0000000000
     13500       123  DOPC      C2            -20.1361776490       21.2130231006      -16.3696140730  MEMB      95              0.0000000000
     13501       123  DOPC      HS            -19.2206127088       21.8500342553      -16.4474051637  MEMB      95              0.0000000000
     13502       123  DOPC      O21           -20.2964240573       20.5763381252      -15.0999705837  MEMB      95              0.0000000000
     13503       123  DOPC      C21           -19.3637499224       20.8870362150      -14.2263168608  MEMB      95              0.0000000000
     13504       123  DOPC      O22           -18.5626697749       21.8028577302      -14.3132530631  MEMB      95              0.0000000000
     13505       123  DOPC      C22           -19.5655236478       19.9670578191      -13.0366270120  MEMB      95              0.0000000000
     13506       123  DOPC      H2R           -19.3870011551       18.9283006401      -13.3949042348  MEMB      95              0.0000000000
     13507       123  DOPC      H2S           -20.6211336412       20.0427168280      -12.7089848800  MEMB      95              0.0000000000
     13508       123  DOPC      C3            -21.3451722972       22.1681353821      -16.5686256802  MEMB      95              0.0000000000
     13509       123  DOPC      HX            -22.2735368985       21.5541455340      -16.6043936992  MEMB      95              0.0000000000
     13510       123  DOPC      HY            -21.2545142492       22.6972268825      -17.5382437172  MEMB      95              0.0000000000
     13511       123  DOPC      O31           -21.4467791529       23.0883592103      -15.4485237987  MEMB      95              0.0000000000
     13512       123  DOPC      C31           -20.5142968109       24.0439835037      -15.3695662785  MEMB      95              0.0000000000
     13513       123  DOPC      O32           -19.9114068099       24.5011449459      -16.3287355349  MEMB      95              0.0000000000
     13514       123  DOPC      C32           -20.3590979691       24.5088501995      -13.9176371495  MEMB      95              0.0000000000
     13515       123  DOPC      H2X           -21.2144676928       25.1635245638      -13.6624349864  MEMB      95              0.0000000000
     13516       123  DOPC      H2Y           -20.4007741543       23.6078768927      -13.2690893208  MEMB      95              0.0000000000
     13517       123  DOPC      C23           -18.6300025051       20.2927563514      -11.8648548661  MEMB      95              0.0000000000
     13518       123  DOPC      H3R           -18.9053003271       21.2542794289      -11.3767811451  MEMB      95              0.0000000000
     13519       123  DOPC      H3S           -17.5888687967       20.3993400764      -12.2515090041  MEMB      95              0.0000000000
     13520       123  DOPC      C24           -18.6346452113       19.1472284268      -10.8529534216  MEMB      95              0.0000000000
     13521       123  DOPC      H4R           -18.5224008989       18.1973484675      -11.4268701706  MEMB      95              0.0000000000
     13522       123  DOPC      H4S           -19.6051263002       19.1041603672      -10.3108017031  MEMB      95              0.0000000000
     13523       123  DOPC      C25           -17.4662392628       19.2667124320       -9.8799063578  MEMB      95              0.0000000000
     13524       123  DOPC      H5R           -17.7187760814       20.0033455718       -9.0870417888  MEMB      95              0.0000000000
     13525       123  DOPC      H5S           -16.5955550481       19.6720072306      -10.4470809676  MEMB      95              0.0000000000
     13526       123  DOPC      C26           -17.0125570292       17.9335953568       -9.2662285263  MEMB      95              0.0000000000
     13527       123  DOPC      H6R           -17.2282506853       17.1116979468       -9.9855315347  MEMB      95              0.0000000000
     13528       123  DOPC      H6S           -17.5886102437       17.7222539833       -8.3379936680  MEMB      95              0.0000000000
     13529       123  DOPC      C27           -15.5053444982       17.9233861765       -8.9610624924  MEMB      95              0.0000000000
     13530       123  DOPC      H7R           -14.9342236819       18.3235333540       -9.8282100443  MEMB      95              0.0000000000
     13531       123  DOPC      H7S           -15.1831367403       16.8654858179       -8.8264829777  MEMB      95              0.0000000000
     13532       123  DOPC      C28           -15.1767277372       18.6864825282       -7.6685104799  MEMB      95              0.0000000000
     13533       123  DOPC      H8R           -14.1676787331       18.4325825261       -7.3146217128  MEMB      95              0.0000000000
     13534       123  DOPC      H8S           -15.8261211161       18.2521862019       -6.8793014502  MEMB      95              0.0000000000
     13535       123  DOPC      C29           -15.3306331020       20.1853379480       -7.8025066480  MEMB      95              0.0000000000
     13536       123  DOPC      H9R           -14.7380980354       20.6765245391       -8.5926412639  MEMB      95              0.0000000000
     13537       123  DOPC      C210          -16.1419929793       20.9230540138       -7.0284115366  MEMB      95              0.0000000000
     13538       123  DOPC      H10R          -16.2328408063       22.0092383297       -7.1932998829  MEMB      95              0.0000000000
     13539       123  DOPC      C211          -16.9892160186       20.3406784480       -5.9282013027  MEMB      95              0.0000000000
     13540       123  DOPC      H11R          -17.4844813722       19.3984909651       -6.2576042412  MEMB      95              0.0000000000
     13541       123  DOPC      H11S          -17.8168398308       21.0300051739       -5.6632693144  MEMB      95              0.0000000000
     13542       123  DOPC      C212          -16.1016647926       20.0288517497       -4.7000620957  MEMB      95              0.0000000000
     13543       123  DOPC      H12R          -15.3618648444       19.2445817491       -4.9673267851  MEMB      95              0.0000000000
     13544       123  DOPC      H12S          -16.7420257207       19.6046249502       -3.8966132357  MEMB      95              0.0000000000
     13545       123  DOPC      C213          -15.3348866117       21.2442214031       -4.1436199366  MEMB      95              0.0000000000
     13546       123  DOPC      H13R          -14.7110198251       21.7044906492       -4.9413213781  MEMB      95              0.0000000000
     13547       123  DOPC      H13S          -14.6453036015       20.9123701633       -3.3372636154  MEMB      95              0.0000000000
     13548       123  DOPC      C214          -16.3215607351       22.2667547526       -3.5927153480  MEMB      95              0.0000000000
     13549       123  DOPC      H14R          -16.8249210085       21.8338028550       -2.6989329947  MEMB      95              0.0000000000
     13550       123  DOPC      H14S          -17.0915453421       22.4522155854       -4.3753365968  MEMB      95              0.0000000000
     13551       123  DOPC      C215          -15.7819759635       23.6481080746       -3.2471916841  MEMB      95              0.0000000000
     13552       123  DOPC      H15R          -15.1271443737       24.0014991467       -4.0742550216  MEMB      95              0.0000000000
     13553       123  DOPC      H15S          -15.1881857551       23.6075310260       -2.3100717737  MEMB      95              0.0000000000
     13554       123  DOPC      C216          -16.9697481570       24.6129040339       -3.1033392398  MEMB      95              0.0000000000
     13555       123  DOPC      H16R          -17.8210028175       24.0709422841       -2.6403556532  MEMB      95              0.0000000000
     13556       123  DOPC      H16S          -17.2808248503       24.9209241702       -4.1244927496  MEMB      95              0.0000000000
     13557       123  DOPC      C217          -16.6683382786       25.8504962084       -2.2722506342  MEMB      95              0.0000000000
     13558       123  DOPC      H17R          -15.7436245380       26.2817015458       -2.6749576039  MEMB      95              0.0000000000
     13559       123  DOPC      H17S          -16.4569938060       25.5579261966       -1.2227957590  MEMB      95              0.0000000000
     13560       123  DOPC      C218          -17.7189467932       26.9560530470       -2.3124183164  MEMB      95              0.0000000000
     13561       123  DOPC      H18R          -18.7039332053       26.6025188524       -1.9417320217  MEMB      95              0.0000000000
     13562       123  DOPC      H18S          -17.8353175722       27.3446032326       -3.3428485191  MEMB      95              0.0000000000
     13563       123  DOPC      H18T          -17.3682138520       27.8047313888       -1.6883715928  MEMB      95              0.0000000000
     13564       123  DOPC      C33           -19.0213826020       25.2539403198      -13.6598878827  MEMB      95              0.0000000000
     13565       123  DOPC      H3X           -19.1930298652       26.3520670485      -13.6360939172  MEMB      95              0.0000000000
     13566       123  DOPC      H3Y           -18.3102850507       25.0480690006      -14.4933389366  MEMB      95              0.0000000000
     13567       123  DOPC      C34           -18.2864286558       24.8092289162      -12.3809454628  MEMB      95              0.0000000000
     13568       123  DOPC      H4X           -17.2427933313       25.1979121297      -12.4355662895  MEMB      95              0.0000000000
     13569       123  DOPC      H4Y           -18.2179982067       23.6991732087      -12.3570943944  MEMB      95              0.0000000000
     13570       123  DOPC      C35           -18.9150452945       25.3360478817      -11.0856507476  MEMB      95              0.0000000000
     13571       123  DOPC      H5X           -19.9399034900       24.9237826674      -10.9622570123  MEMB      95              0.0000000000
     13572       123  DOPC      H5Y           -19.0037853548       26.4422677310      -11.1767830444  MEMB      95              0.0000000000
     13573       123  DOPC      C36           -18.0819471581       25.0207582500       -9.8309176842  MEMB      95              0.0000000000
     13574       123  DOPC      H6X           -18.2792719138       23.9723728614       -9.5152260384  MEMB      95              0.0000000000
     13575       123  DOPC      H6Y           -16.9994573837       25.0999692753      -10.0740711276  MEMB      95              0.0000000000
     13576       123  DOPC      C37           -18.4043038518       25.9892505028       -8.6858052474  MEMB      95              0.0000000000
     13577       123  DOPC      H7X           -18.1089877362       27.0168871212       -8.9995595656  MEMB      95              0.0000000000
     13578       123  DOPC      H7Y           -19.5073231565       25.9903109585       -8.5413236996  MEMB      95              0.0000000000
     13579       123  DOPC      C38           -17.7227433238       25.6331684485       -7.3538919256  MEMB      95              0.0000000000
     13580       123  DOPC      H8X           -16.6189088278       25.6018623410       -7.4877172359  MEMB      95              0.0000000000
     13581       123  DOPC      H8Y           -18.0377628220       24.6065811855       -7.0586744162  MEMB      95              0.0000000000
     13582       123  DOPC      C39           -18.0912006120       26.6398502931       -6.2937136318  MEMB      95              0.0000000000
     13583       123  DOPC      H9X           -17.3873203581       27.4795915207       -6.1707714106  MEMB      95              0.0000000000
     13584       123  DOPC      C310          -19.1784548814       26.5743502439       -5.5042534252  MEMB      95              0.0000000000
     13585       123  DOPC      H10X          -19.3484198130       27.3745997090       -4.7666506127  MEMB      95              0.0000000000
     13586       123  DOPC      C311          -20.2258514731       25.4892873964       -5.5306729651  MEMB      95              0.0000000000
     13587       123  DOPC      H11X          -20.4551851125       25.1876641542       -6.5756700358  MEMB      95              0.0000000000
     13588       123  DOPC      H11Y          -21.1702115603       25.8723646388       -5.0840838153  MEMB      95              0.0000000000
     13589       123  DOPC      C312          -19.8267591529       24.2390512655       -4.7294231255  MEMB      95              0.0000000000
     13590       123  DOPC      H12X          -19.6809671705       24.5534191701       -3.6695610264  MEMB      95              0.0000000000
     13591       123  DOPC      H12Y          -18.8647414397       23.8245910859       -5.1031365271  MEMB      95              0.0000000000
     13592       123  DOPC      C313          -20.8789674019       23.1214277767       -4.7606347819  MEMB      95              0.0000000000
     13593       123  DOPC      H13X          -21.8814920019       23.5893451799       -4.8982547301  MEMB      95              0.0000000000
     13594       123  DOPC      H13Y          -20.7055691852       22.4466644072       -5.6266561191  MEMB      95              0.0000000000
     13595       123  DOPC      C314          -20.9037951406       22.3145652009       -3.4551338810  MEMB      95              0.0000000000
     13596       123  DOPC      H14X          -20.9097721803       23.0267326100       -2.5952989906  MEMB      95              0.0000000000
     13597       123  DOPC      H14Y          -21.8396061336       21.7138807079       -3.4107150316  MEMB      95              0.0000000000
     13598       123  DOPC      C315          -19.7275226752       21.3718440569       -3.2478891544  MEMB      95              0.0000000000
     13599       123  DOPC      H15X          -18.8049296803       21.9711686241       -3.3286324364  MEMB      95              0.0000000000
     13600       123  DOPC      H15Y          -19.7065446053       20.6003010199       -4.0402463155  MEMB      95              0.0000000000
     13601       123  DOPC      C316          -19.7713729001       20.7201719269       -1.8658959214  MEMB      95              0.0000000000
     13602       123  DOPC      H16X          -19.0989455063       21.2900484698       -1.1865442633  MEMB      95              0.0000000000
     13603       123  DOPC      H16Y          -20.8043532129       20.7891928898       -1.4537715514  MEMB      95              0.0000000000
     13604       123  DOPC      C317          -19.3611578368       19.2497086068       -1.8602819151  MEMB      95              0.0000000000
     13605       123  DOPC      H17X          -20.1352760489       18.6394891972       -2.3807766941  MEMB      95              0.0000000000
     13606       123  DOPC      H17Y          -18.4185294676       19.1251280189       -2.4350499972  MEMB      95              0.0000000000
     13607       123  DOPC      C318          -19.1742276427       18.7523645176       -0.4297237071  MEMB      95              0.0000000000
     13608       123  DOPC      H18X          -19.2340197750       17.6494636594       -0.3812513144  MEMB      95              0.0000000000
     13609       123  DOPC      H18Y          -18.1956076514       19.0708582875       -0.0149869085  MEMB      95              0.0000000000
     13610       123  DOPC      H18Z          -19.9414424790       19.1798421090        0.2420133262  MEMB      95              0.0000000000
     13611       124  DOPC      N              -9.0507969332      -26.3480884508      -19.6092980225  MEMB      96              0.0000000000
     13612       124  DOPC      C12            -9.9159097881      -25.3235888024      -20.3446188230  MEMB      96              0.0000000000
     13613       124  DOPC      H12A          -10.7725757062      -25.8284724491      -20.7964048002  MEMB      96              0.0000000000
     13614       124  DOPC      H12B           -9.3449843665      -24.8419804919      -21.1260683782  MEMB      96              0.0000000000
     13615       124  DOPC      C13            -7.7709585992      -25.7867735011      -19.0799105767  MEMB      96              0.0000000000
     13616       124  DOPC      H13A           -7.9471364639      -24.9613015585      -18.4075828952  MEMB      96              0.0000000000
     13617       124  DOPC      H13B           -7.2364869868      -26.5392337216      -18.4864354762  MEMB      96              0.0000000000
     13618       124  DOPC      H13C           -7.0446494762      -25.4982359948      -19.8396517350  MEMB      96              0.0000000000
     13619       124  DOPC      C14            -8.6960261896      -27.5282879380      -20.4476391060  MEMB      96              0.0000000000
     13620       124  DOPC      H14A           -8.0361942161      -28.1979661026      -19.8937310406  MEMB      96              0.0000000000
     13621       124  DOPC      H14B           -9.5871566228      -28.0738073757      -20.7187468610  MEMB      96              0.0000000000
     13622       124  DOPC      H14C           -8.1114514734      -27.2242508809      -21.3163367674  MEMB      96              0.0000000000
     13623       124  DOPC      C15            -9.8273982383      -26.8624689631      -18.4289851945  MEMB      96              0.0000000000
     13624       124  DOPC      H15A          -10.8121033992      -27.2199932541      -18.7245348289  MEMB      96              0.0000000000
     13625       124  DOPC      H15B          -10.0650804142      -26.0324894886      -17.7574119649  MEMB      96              0.0000000000
     13626       124  DOPC      H15C           -9.3065366278      -27.6189808092      -17.8756894333  MEMB      96              0.0000000000
     13627       124  DOPC      C11           -10.5720704135      -24.2167545418      -19.4868907160  MEMB      96              0.0000000000
     13628       124  DOPC      H11A           -9.7966794406      -23.7739583161      -18.8222323995  MEMB      96              0.0000000000
     13629       124  DOPC      H11B          -10.9544495859      -23.3950426049      -20.1387480544  MEMB      96              0.0000000000
     13630       124  DOPC      P             -13.0312638671      -25.1986865954      -19.2774112823  MEMB      96              0.0000000000
     13631       124  DOPC      O13           -12.9825050856      -26.6497004209      -19.6249689789  MEMB      96              0.0000000000
     13632       124  DOPC      O14           -13.4098335179      -24.2767043576      -20.3735807060  MEMB      96              0.0000000000
     13633       124  DOPC      O12           -11.6160053009      -24.7572748671      -18.6905897069  MEMB      96              0.0000000000
     13634       124  DOPC      O11           -14.0486454315      -24.9651148245      -18.0966381373  MEMB      96              0.0000000000
     13635       124  DOPC      C1            -14.0260687477      -23.8132557610      -17.2474232990  MEMB      96              0.0000000000
     13636       124  DOPC      HA            -15.0785447295      -23.4966478062      -17.0673576506  MEMB      96              0.0000000000
     13637       124  DOPC      HB            -13.5141943094      -22.9358145335      -17.6998668051  MEMB      96              0.0000000000
     13638       124  DOPC      C2            -13.4274426132      -24.1748287418      -15.8670191581  MEMB      96              0.0000000000
     13639       124  DOPC      HS            -13.5069030156      -23.3024982526      -15.1804545119  MEMB      96              0.0000000000
     13640       124  DOPC      O21           -12.0829877673      -24.5880040922      -15.9947220407  MEMB      96              0.0000000000
     13641       124  DOPC      C21           -11.1361454011      -23.7047942445      -16.0381621685  MEMB      96              0.0000000000
     13642       124  DOPC      O22           -11.2256411641      -22.4945675063      -16.1676830049  MEMB      96              0.0000000000
     13643       124  DOPC      C22            -9.8444265088      -24.4549807165      -15.7197754214  MEMB      96              0.0000000000
     13644       124  DOPC      H2R            -9.2507983133      -23.7374159945      -15.1290914647  MEMB      96              0.0000000000
     13645       124  DOPC      H2S            -9.3258019601      -24.6742994775      -16.6678688681  MEMB      96              0.0000000000
     13646       124  DOPC      C3            -14.2465814123      -25.3778187665      -15.2900789557  MEMB      96              0.0000000000
     13647       124  DOPC      HX            -14.4011985090      -26.0842414674      -16.1306912478  MEMB      96              0.0000000000
     13648       124  DOPC      HY            -15.2524493934      -24.9846239711      -15.0817418911  MEMB      96              0.0000000000
     13649       124  DOPC      O31           -13.7381604183      -26.1670098521      -14.1811351889  MEMB      96              0.0000000000
     13650       124  DOPC      C31           -13.2931250728      -25.5953165823      -13.0796217794  MEMB      96              0.0000000000
     13651       124  DOPC      O32           -13.0033951877      -24.4259173199      -12.9368854909  MEMB      96              0.0000000000
     13652       124  DOPC      C32           -13.2895149356      -26.6295820196      -11.9271495133  MEMB      96              0.0000000000
     13653       124  DOPC      H2X           -14.2868421326      -27.1088009456      -11.9311743587  MEMB      96              0.0000000000
     13654       124  DOPC      H2Y           -12.5585952717      -27.4096794132      -12.1727993198  MEMB      96              0.0000000000
     13655       124  DOPC      C23           -10.1449829246      -25.7318815543      -14.8903561381  MEMB      96              0.0000000000
     13656       124  DOPC      H3R           -10.9560348125      -26.3396082371      -15.3589941399  MEMB      96              0.0000000000
     13657       124  DOPC      H3S           -10.5110338431      -25.3787735521      -13.9006517479  MEMB      96              0.0000000000
     13658       124  DOPC      C24            -9.0251331080      -26.7427523482      -14.6961432501  MEMB      96              0.0000000000
     13659       124  DOPC      H4R            -8.0677186248      -26.2610564570      -14.4346588983  MEMB      96              0.0000000000
     13660       124  DOPC      H4S            -8.8521937283      -27.2904987727      -15.6508046356  MEMB      96              0.0000000000
     13661       124  DOPC      C25            -9.4101033468      -27.7805258164      -13.6340134765  MEMB      96              0.0000000000
     13662       124  DOPC      H5R            -8.5356267029      -28.4545186089      -13.5304547877  MEMB      96              0.0000000000
     13663       124  DOPC      H5S           -10.2778366954      -28.3811876664      -13.9875472926  MEMB      96              0.0000000000
     13664       124  DOPC      C26            -9.7335653725      -27.2392228483      -12.2299474322  MEMB      96              0.0000000000
     13665       124  DOPC      H6R           -10.6850429892      -26.6851909760      -12.2043652806  MEMB      96              0.0000000000
     13666       124  DOPC      H6S            -8.9408773849      -26.5085288330      -11.9495053186  MEMB      96              0.0000000000
     13667       124  DOPC      C27            -9.7246893928      -28.3792049682      -11.1935393679  MEMB      96              0.0000000000
     13668       124  DOPC      H7R            -9.3918689775      -27.9778409704      -10.2145950415  MEMB      96              0.0000000000
     13669       124  DOPC      H7S            -8.9205120045      -29.0438755531      -11.5575727252  MEMB      96              0.0000000000
     13670       124  DOPC      C28           -11.0256521116      -29.2112505900      -11.0180113376  MEMB      96              0.0000000000
     13671       124  DOPC      H8R           -11.4635514129      -29.3906719002      -12.0238644165  MEMB      96              0.0000000000
     13672       124  DOPC      H8S           -11.7848148867      -28.6317618317      -10.4743225233  MEMB      96              0.0000000000
     13673       124  DOPC      C29           -10.7635350746      -30.5306716278      -10.3253376856  MEMB      96              0.0000000000
     13674       124  DOPC      H9R           -10.2378364481      -31.2252159915      -10.9951529842  MEMB      96              0.0000000000
     13675       124  DOPC      C210          -11.1328867839      -31.0024415708       -9.1074406794  MEMB      96              0.0000000000
     13676       124  DOPC      H10R          -10.8096727953      -32.0216155837       -8.8556576777  MEMB      96              0.0000000000
     13677       124  DOPC      C211          -11.9555246850      -30.3451668872       -8.0190479872  MEMB      96              0.0000000000
     13678       124  DOPC      H11R          -12.9229147387      -30.8843083942       -8.0038788170  MEMB      96              0.0000000000
     13679       124  DOPC      H11S          -12.2154139990      -29.3070417061       -8.3033279261  MEMB      96              0.0000000000
     13680       124  DOPC      C212          -11.4982749923      -30.3273769295       -6.5302223264  MEMB      96              0.0000000000
     13681       124  DOPC      H12R          -10.4182817129      -30.5109313373       -6.4364000888  MEMB      96              0.0000000000
     13682       124  DOPC      H12S          -11.9581168141      -31.1652625722       -5.9708766622  MEMB      96              0.0000000000
     13683       124  DOPC      C213          -11.9362144202      -29.0270409483       -5.8354172626  MEMB      96              0.0000000000
     13684       124  DOPC      H13R          -13.0038721972      -28.8307917741       -6.0913413818  MEMB      96              0.0000000000
     13685       124  DOPC      H13S          -11.3326802160      -28.1866471182       -6.2183783616  MEMB      96              0.0000000000
     13686       124  DOPC      C214          -11.8676908636      -28.9915826095       -4.3036696873  MEMB      96              0.0000000000
     13687       124  DOPC      H14R          -10.9104098491      -29.3541327790       -3.9322961228  MEMB      96              0.0000000000
     13688       124  DOPC      H14S          -12.6264997769      -29.7002759574       -3.9440321458  MEMB      96              0.0000000000
     13689       124  DOPC      C215          -12.2628161895      -27.5832456819       -3.8433603055  MEMB      96              0.0000000000
     13690       124  DOPC      H15R          -13.3336163735      -27.6421741263       -4.0925272602  MEMB      96              0.0000000000
     13691       124  DOPC      H15S          -11.7312174101      -26.8235648904       -4.4642352713  MEMB      96              0.0000000000
     13692       124  DOPC      C216          -12.1845690270      -27.0994319404       -2.3909914058  MEMB      96              0.0000000000
     13693       124  DOPC      H16R          -12.9075318299      -27.5989612665       -1.7174571391  MEMB      96              0.0000000000
     13694       124  DOPC      H16S          -12.4486023253      -26.0102654430       -2.3631490017  MEMB      96              0.0000000000
     13695       124  DOPC      C217          -10.7730743439      -27.2319147716       -1.8793741748  MEMB      96              0.0000000000
     13696       124  DOPC      H17R          -10.2761537939      -28.0824565125       -2.3846919360  MEMB      96              0.0000000000
     13697       124  DOPC      H17S          -10.7753091492      -27.4431983987       -0.7864046735  MEMB      96              0.0000000000
     13698       124  DOPC      C218          -10.0105865580      -25.9615662486       -2.1322953710  MEMB      96              0.0000000000
     13699       124  DOPC      H18R          -10.3321014118      -25.2588293587       -1.3475400750  MEMB      96              0.0000000000
     13700       124  DOPC      H18S          -10.2271009813      -25.5239614098       -3.1311290880  MEMB      96              0.0000000000
     13701       124  DOPC      H18T           -8.9278653743      -26.1626388442       -2.0466150982  MEMB      96              0.0000000000
     13702       124  DOPC      C33           -13.0494378112      -25.9395643600      -10.5472994483  MEMB      96              0.0000000000
     13703       124  DOPC      H3X           -14.0427170801      -25.4697143837      -10.3926153107  MEMB      96              0.0000000000
     13704       124  DOPC      H3Y           -12.3035407227      -25.1253791792      -10.6056539622  MEMB      96              0.0000000000
     13705       124  DOPC      C34           -12.8319645535      -26.7397321682       -9.2394513162  MEMB      96              0.0000000000
     13706       124  DOPC      H4X           -13.2932502330      -27.7502376002       -9.2985133027  MEMB      96              0.0000000000
     13707       124  DOPC      H4Y           -13.4245061106      -26.1927132663       -8.4721039011  MEMB      96              0.0000000000
     13708       124  DOPC      C35           -11.4259408067      -26.8040336529       -8.5801419103  MEMB      96              0.0000000000
     13709       124  DOPC      H5X           -10.9327509216      -27.7733913737       -8.7924005665  MEMB      96              0.0000000000
     13710       124  DOPC      H5Y           -11.6086258749      -26.7934067813       -7.4855325257  MEMB      96              0.0000000000
     13711       124  DOPC      C36           -10.3853044918      -25.6965273953       -8.8117555979  MEMB      96              0.0000000000
     13712       124  DOPC      H6X            -9.4059400866      -26.1605632862       -8.5466535905  MEMB      96              0.0000000000
     13713       124  DOPC      H6Y           -10.3152959072      -25.4194760172       -9.8816398678  MEMB      96              0.0000000000
     13714       124  DOPC      C37           -10.5827838184      -24.4712070711       -7.8967721080  MEMB      96              0.0000000000
     13715       124  DOPC      H7X           -11.3642646871      -23.8282212505       -8.3567528007  MEMB      96              0.0000000000
     13716       124  DOPC      H7Y           -10.9795231412      -24.8011628042       -6.9081681154  MEMB      96              0.0000000000
     13717       124  DOPC      C38            -9.2948244388      -23.6477318764       -7.6400207564  MEMB      96              0.0000000000
     13718       124  DOPC      H8X            -9.5820140082      -22.7053506122       -7.1205524409  MEMB      96              0.0000000000
     13719       124  DOPC      H8Y            -8.8654102389      -23.3613896903       -8.6260256539  MEMB      96              0.0000000000
     13720       124  DOPC      C39            -8.2930907919      -24.4297623733       -6.8167347071  MEMB      96              0.0000000000
     13721       124  DOPC      H9X            -8.4938795405      -25.5087246086       -6.7780001029  MEMB      96              0.0000000000
     13722       124  DOPC      C310           -7.1990097816      -23.9957134204       -6.1615004203  MEMB      96              0.0000000000
     13723       124  DOPC      H10X           -6.5742005403      -24.7482186866       -5.6547861886  MEMB      96              0.0000000000
     13724       124  DOPC      C311           -6.6650803006      -22.5887385396       -6.0708371715  MEMB      96              0.0000000000
     13725       124  DOPC      H11X           -7.0257937167      -21.9815368597       -6.9289950394  MEMB      96              0.0000000000
     13726       124  DOPC      H11Y           -5.5578432783      -22.6289789742       -6.1820378089  MEMB      96              0.0000000000
     13727       124  DOPC      C312           -6.9505317720      -21.8088544795       -4.7603398935  MEMB      96              0.0000000000
     13728       124  DOPC      H12X           -6.9276470319      -20.7237283820       -5.0048947605  MEMB      96              0.0000000000
     13729       124  DOPC      H12Y           -6.1249503322      -21.9600118180       -4.0360986147  MEMB      96              0.0000000000
     13730       124  DOPC      C313           -8.2874411041      -22.1677809202       -4.0834162851  MEMB      96              0.0000000000
     13731       124  DOPC      H13X           -9.1022181762      -22.0233758287       -4.8206270306  MEMB      96              0.0000000000
     13732       124  DOPC      H13Y           -8.3033253458      -23.2489491091       -3.8220274276  MEMB      96              0.0000000000
     13733       124  DOPC      C314           -8.5990038550      -21.3668074262       -2.8049489689  MEMB      96              0.0000000000
     13734       124  DOPC      H14X           -7.9992021679      -21.8040142980       -1.9769966002  MEMB      96              0.0000000000
     13735       124  DOPC      H14Y           -8.2689391138      -20.3117519655       -2.9131241216  MEMB      96              0.0000000000
     13736       124  DOPC      C315          -10.1060386166      -21.3887235774       -2.4760361926  MEMB      96              0.0000000000
     13737       124  DOPC      H15X          -10.5434279629      -22.2929334935       -2.9639066381  MEMB      96              0.0000000000
     13738       124  DOPC      H15Y          -10.5883978372      -20.5012901356       -2.9408414096  MEMB      96              0.0000000000
     13739       124  DOPC      C316          -10.4655331706      -21.4701473405       -0.9800295389  MEMB      96              0.0000000000
     13740       124  DOPC      H16X          -10.0388280527      -20.6223730213       -0.4134461770  MEMB      96              0.0000000000
     13741       124  DOPC      H16Y          -11.5795805589      -21.4099878397       -0.9000214420  MEMB      96              0.0000000000
     13742       124  DOPC      C317          -10.0533420117      -22.8333505492       -0.4145437302  MEMB      96              0.0000000000
     13743       124  DOPC      H17X          -10.7886193671      -23.4910577605       -0.9143554338  MEMB      96              0.0000000000
     13744       124  DOPC      H17Y           -9.0538320651      -23.1180148082       -0.7853985827  MEMB      96              0.0000000000
     13745       124  DOPC      C318          -10.1108399981      -23.0963389671        1.0931287587  MEMB      96              0.0000000000
     13746       124  DOPC      H18X          -10.0234978735      -24.1898767176        1.2942989269  MEMB      96              0.0000000000
     13747       124  DOPC      H18Y           -9.3136539590      -22.5819176775        1.6657966427  MEMB      96              0.0000000000
     13748       124  DOPC      H18Z          -11.0828313684      -22.7623819171        1.4880679265  MEMB      96              0.0000000000
     13749       125  DOPC      N             -26.2167951767      -10.3526680498      -18.1702157895  MEMB      97              0.0000000000
     13750       125  DOPC      C12           -27.4757656130       -9.6261967117      -17.7246886268  MEMB      97              0.0000000000
     13751       125  DOPC      H12A          -27.2903483119       -9.1866075497      -16.7565826527  MEMB      97              0.0000000000
     13752       125  DOPC      H12B          -28.2747809516      -10.3419509099      -17.5876394056  MEMB      97              0.0000000000
     13753       125  DOPC      C13           -25.6261723154      -11.1514014022      -17.0549134517  MEMB      97              0.0000000000
     13754       125  DOPC      H13A          -25.2797087335      -10.4937389804      -16.2622774250  MEMB      97              0.0000000000
     13755       125  DOPC      H13B          -26.3303408945      -11.8554131264      -16.6231461558  MEMB      97              0.0000000000
     13756       125  DOPC      H13C          -24.7855137402      -11.7417948328      -17.4011198022  MEMB      97              0.0000000000
     13757       125  DOPC      C14           -25.2122507409       -9.3648070354      -18.6937218501  MEMB      97              0.0000000000
     13758       125  DOPC      H14A          -24.3108112305       -9.8357830446      -19.0864670120  MEMB      97              0.0000000000
     13759       125  DOPC      H14B          -25.6592767673       -8.8590630728      -19.5601593757  MEMB      97              0.0000000000
     13760       125  DOPC      H14C          -24.9465905395       -8.6095023221      -17.9784350697  MEMB      97              0.0000000000
     13761       125  DOPC      C15           -26.5325046508      -11.2227701992      -19.3440789482  MEMB      97              0.0000000000
     13762       125  DOPC      H15A          -27.1056190016      -10.6242276405      -20.0623564010  MEMB      97              0.0000000000
     13763       125  DOPC      H15B          -27.1442846687      -12.0693038507      -19.0781145316  MEMB      97              0.0000000000
     13764       125  DOPC      H15C          -25.6224227885      -11.5460362721      -19.8319526096  MEMB      97              0.0000000000
     13765       125  DOPC      C11           -28.0395988881       -8.5124901696      -18.6539358679  MEMB      97              0.0000000000
     13766       125  DOPC      H11A          -28.9293652662       -8.0694755850      -18.1515244002  MEMB      97              0.0000000000
     13767       125  DOPC      H11B          -27.2953801929       -7.6857653177      -18.7116286846  MEMB      97              0.0000000000
     13768       125  DOPC      P             -29.7840550697       -9.1245344207      -20.6129317922  MEMB      97              0.0000000000
     13769       125  DOPC      O13           -29.9935398738      -10.4912024146      -21.1603042324  MEMB      97              0.0000000000
     13770       125  DOPC      O14           -30.2479359625       -7.9467319597      -21.4027998597  MEMB      97              0.0000000000
     13771       125  DOPC      O12           -28.3258453287       -8.9908902564      -19.9699963508  MEMB      97              0.0000000000
     13772       125  DOPC      O11           -30.6470157637       -9.1465780641      -19.3251754157  MEMB      97              0.0000000000
     13773       125  DOPC      C1            -31.9982028101       -8.7517964530      -19.4944335837  MEMB      97              0.0000000000
     13774       125  DOPC      HA            -32.5037625282       -9.3011102475      -20.3253439547  MEMB      97              0.0000000000
     13775       125  DOPC      HB            -32.0709791722       -7.6607872939      -19.7148491638  MEMB      97              0.0000000000
     13776       125  DOPC      C2            -32.6949590921       -9.1101316186      -18.1983133564  MEMB      97              0.0000000000
     13777       125  DOPC      HS            -33.7175484687       -8.7293785933      -18.1739180131  MEMB      97              0.0000000000
     13778       125  DOPC      O21           -32.0255507615       -8.6414637245      -17.0255248731  MEMB      97              0.0000000000
     13779       125  DOPC      C21           -31.2894030340       -7.5427888413      -16.9364292938  MEMB      97              0.0000000000
     13780       125  DOPC      O22           -31.0369306027       -6.7320002912      -17.8058049282  MEMB      97              0.0000000000
     13781       125  DOPC      C22           -31.0212476178       -7.2789410053      -15.4467488916  MEMB      97              0.0000000000
     13782       125  DOPC      H2R           -31.6347013070       -6.3969679413      -15.1646439908  MEMB      97              0.0000000000
     13783       125  DOPC      H2S           -29.9543822310       -7.0014993882      -15.3320114696  MEMB      97              0.0000000000
     13784       125  DOPC      C3            -32.8752877809      -10.6589934418      -18.1330949898  MEMB      97              0.0000000000
     13785       125  DOPC      HX            -33.5721151354      -10.8876410948      -18.9708509713  MEMB      97              0.0000000000
     13786       125  DOPC      HY            -33.4195614681      -10.9062799252      -17.1945616073  MEMB      97              0.0000000000
     13787       125  DOPC      O31           -31.6741209766      -11.4547741106      -18.3214074596  MEMB      97              0.0000000000
     13788       125  DOPC      C31           -30.9706341489      -11.5560750089      -17.2042105976  MEMB      97              0.0000000000
     13789       125  DOPC      O32           -31.3615505868      -11.1699407809      -16.1171748494  MEMB      97              0.0000000000
     13790       125  DOPC      C32           -29.7341887325      -12.4569282885      -17.4112829512  MEMB      97              0.0000000000
     13791       125  DOPC      H2X           -30.0503935770      -13.3469945734      -17.9906105433  MEMB      97              0.0000000000
     13792       125  DOPC      H2Y           -28.9846424683      -11.9089062222      -18.0028588808  MEMB      97              0.0000000000
     13793       125  DOPC      C23           -31.3775651471       -8.4573026856      -14.5093023407  MEMB      97              0.0000000000
     13794       125  DOPC      H3R           -30.6285549861       -9.2668874459      -14.6738892977  MEMB      97              0.0000000000
     13795       125  DOPC      H3S           -32.3796386774       -8.8789483068      -14.7503141567  MEMB      97              0.0000000000
     13796       125  DOPC      C24           -31.3949114940       -8.0660302442      -13.0283813816  MEMB      97              0.0000000000
     13797       125  DOPC      H4R           -32.3533711229       -7.5565777627      -12.7811839509  MEMB      97              0.0000000000
     13798       125  DOPC      H4S           -30.5695980664       -7.3437499973      -12.8490593486  MEMB      97              0.0000000000
     13799       125  DOPC      C25           -31.2116568546       -9.2952334156      -12.1282403280  MEMB      97              0.0000000000
     13800       125  DOPC      H5R           -30.3983880241       -9.9258458290      -12.5573277098  MEMB      97              0.0000000000
     13801       125  DOPC      H5S           -32.1428097989       -9.9075340874      -12.1467961300  MEMB      97              0.0000000000
     13802       125  DOPC      C26           -30.8379743954       -9.0151418392      -10.6572277250  MEMB      97              0.0000000000
     13803       125  DOPC      H6R           -30.6175728421      -10.0149956573      -10.2329320396  MEMB      97              0.0000000000
     13804       125  DOPC      H6S           -31.7061650148       -8.6005492500      -10.1047659336  MEMB      97              0.0000000000
     13805       125  DOPC      C27           -29.6004067399       -8.1242063439      -10.4263344347  MEMB      97              0.0000000000
     13806       125  DOPC      H7R           -29.8365955852       -7.0739487021      -10.6963281866  MEMB      97              0.0000000000
     13807       125  DOPC      H7S           -28.8043504810       -8.4791826650      -11.1231292172  MEMB      97              0.0000000000
     13808       125  DOPC      C28           -28.9963595305       -8.1762385123       -8.9938252003  MEMB      97              0.0000000000
     13809       125  DOPC      H8R           -27.9931784441       -7.6948237016       -9.0635355475  MEMB      97              0.0000000000
     13810       125  DOPC      H8S           -28.7872729377       -9.2408669243       -8.7507447248  MEMB      97              0.0000000000
     13811       125  DOPC      C29           -29.7483706351       -7.5099594645       -7.8577798817  MEMB      97              0.0000000000
     13812       125  DOPC      H9R           -29.4152515182       -6.4847175250       -7.6361428557  MEMB      97              0.0000000000
     13813       125  DOPC      C210          -30.7473592346       -8.0354380276       -7.1131867834  MEMB      97              0.0000000000
     13814       125  DOPC      H10R          -31.1844529336       -7.4375357411       -6.2969046035  MEMB      97              0.0000000000
     13815       125  DOPC      C211          -31.3275874426       -9.4179184975       -7.2753554990  MEMB      97              0.0000000000
     13816       125  DOPC      H11R          -30.8323670785       -9.8985386414       -8.1279557005  MEMB      97              0.0000000000
     13817       125  DOPC      H11S          -32.4013280475       -9.3562167619       -7.5579037744  MEMB      97              0.0000000000
     13818       125  DOPC      C212          -31.1881365771      -10.3960820408       -6.0900069406  MEMB      97              0.0000000000
     13819       125  DOPC      H12R          -30.1637400323      -10.3517855497       -5.6644890613  MEMB      97              0.0000000000
     13820       125  DOPC      H12S          -31.3450750846      -11.4323994049       -6.4727386586  MEMB      97              0.0000000000
     13821       125  DOPC      C213          -32.2286590545      -10.1431843579       -4.9974451671  MEMB      97              0.0000000000
     13822       125  DOPC      H13R          -33.2332575666      -10.0766899051       -5.4740442666  MEMB      97              0.0000000000
     13823       125  DOPC      H13S          -32.0107385058       -9.1614169568       -4.5214742858  MEMB      97              0.0000000000
     13824       125  DOPC      C214          -32.2827945397      -11.2498094804       -3.9324530070  MEMB      97              0.0000000000
     13825       125  DOPC      H14R          -31.3242076410      -11.2743591176       -3.3687540639  MEMB      97              0.0000000000
     13826       125  DOPC      H14S          -32.3899174837      -12.2384870562       -4.4317208892  MEMB      97              0.0000000000
     13827       125  DOPC      C215          -33.4583772944      -11.0587274607       -2.9587937798  MEMB      97              0.0000000000
     13828       125  DOPC      H15R          -33.4059126526      -11.8267532133       -2.1563853420  MEMB      97              0.0000000000
     13829       125  DOPC      H15S          -34.4118824836      -11.2182529348       -3.5132161514  MEMB      97              0.0000000000
     13830       125  DOPC      C216          -33.5027342129       -9.6705381364       -2.3032999868  MEMB      97              0.0000000000
     13831       125  DOPC      H16R          -34.3353792214       -9.6488619658       -1.5648378078  MEMB      97              0.0000000000
     13832       125  DOPC      H16S          -33.7301741224       -8.9099112512       -3.0819827979  MEMB      97              0.0000000000
     13833       125  DOPC      C217          -32.2010252279       -9.2899311230       -1.5912209774  MEMB      97              0.0000000000
     13834       125  DOPC      H17R          -31.3478251058       -9.3590501406       -2.3023327817  MEMB      97              0.0000000000
     13835       125  DOPC      H17S          -32.0166293703      -10.0259717009       -0.7766532521  MEMB      97              0.0000000000
     13836       125  DOPC      C218          -32.2095472634       -7.8741662699       -1.0194365707  MEMB      97              0.0000000000
     13837       125  DOPC      H18R          -32.0838164410       -7.1312649479       -1.8376301167  MEMB      97              0.0000000000
     13838       125  DOPC      H18S          -31.3826264880       -7.7472928397       -0.2893843381  MEMB      97              0.0000000000
     13839       125  DOPC      H18T          -33.1735151631       -7.6756915502       -0.5037530132  MEMB      97              0.0000000000
     13840       125  DOPC      C33           -29.2120763957      -12.8814636581      -16.0186217793  MEMB      97              0.0000000000
     13841       125  DOPC      H3X           -30.0491264736      -13.4187060541      -15.5139866068  MEMB      97              0.0000000000
     13842       125  DOPC      H3Y           -29.0081617583      -11.9577605696      -15.4263825307  MEMB      97              0.0000000000
     13843       125  DOPC      C34           -27.9685827157      -13.7826863313      -15.8796113968  MEMB      97              0.0000000000
     13844       125  DOPC      H4X           -27.2020891930      -13.5612303604      -16.6472705749  MEMB      97              0.0000000000
     13845       125  DOPC      H4Y           -28.2647565673      -14.8522618586      -15.9931386258  MEMB      97              0.0000000000
     13846       125  DOPC      C35           -27.3565351538      -13.6086224616      -14.4723887378  MEMB      97              0.0000000000
     13847       125  DOPC      H5X           -26.9775747217      -12.5675353181      -14.3534454745  MEMB      97              0.0000000000
     13848       125  DOPC      H5Y           -26.4960910630      -14.2984964421      -14.3225695995  MEMB      97              0.0000000000
     13849       125  DOPC      C36           -28.3709995651      -13.8948042079      -13.3556644989  MEMB      97              0.0000000000
     13850       125  DOPC      H6X           -29.3790374566      -13.4929768822      -13.5878709172  MEMB      97              0.0000000000
     13851       125  DOPC      H6Y           -28.4774372387      -14.9968674893      -13.2630354691  MEMB      97              0.0000000000
     13852       125  DOPC      C37           -28.0284086000      -13.2931903313      -11.9906161556  MEMB      97              0.0000000000
     13853       125  DOPC      H7X           -26.9585358823      -13.4357854669      -11.7312950899  MEMB      97              0.0000000000
     13854       125  DOPC      H7Y           -28.1881039832      -12.1902900004      -12.0616886671  MEMB      97              0.0000000000
     13855       125  DOPC      C38           -28.9039412506      -13.9349658995      -10.8974815157  MEMB      97              0.0000000000
     13856       125  DOPC      H8X           -28.2492919858      -14.4606774181      -10.1668331406  MEMB      97              0.0000000000
     13857       125  DOPC      H8Y           -29.5590946126      -14.7217840672      -11.3314633184  MEMB      97              0.0000000000
     13858       125  DOPC      C39           -29.7384100020      -12.8997894033      -10.2173431545  MEMB      97              0.0000000000
     13859       125  DOPC      H9X           -30.7498765361      -12.7368610694      -10.6223761080  MEMB      97              0.0000000000
     13860       125  DOPC      C310          -29.2499540024      -12.0617675623       -9.3007956792  MEMB      97              0.0000000000
     13861       125  DOPC      H10X          -29.9368036991      -11.3609437215       -8.8310192798  MEMB      97              0.0000000000
     13862       125  DOPC      C311          -27.8356474474      -11.9968516094       -8.7928826556  MEMB      97              0.0000000000
     13863       125  DOPC      H11X          -27.3085165324      -11.1188936869       -9.2329037889  MEMB      97              0.0000000000
     13864       125  DOPC      H11Y          -27.2473178259      -12.9001703019       -9.0636682707  MEMB      97              0.0000000000
     13865       125  DOPC      C312          -27.8396365345      -11.8561373445       -7.2672736142  MEMB      97              0.0000000000
     13866       125  DOPC      H12X          -28.5726451770      -12.5649339401       -6.8184350980  MEMB      97              0.0000000000
     13867       125  DOPC      H12Y          -28.1665664242      -10.8217447063       -7.0090994473  MEMB      97              0.0000000000
     13868       125  DOPC      C313          -26.4604469986      -12.1545060592       -6.6622091650  MEMB      97              0.0000000000
     13869       125  DOPC      H13X          -26.1771039724      -13.1912396137       -6.9633504747  MEMB      97              0.0000000000
     13870       125  DOPC      H13Y          -25.7138222103      -11.4619083697       -7.1092892885  MEMB      97              0.0000000000
     13871       125  DOPC      C314          -26.4074840085      -12.0780451852       -5.1242633652  MEMB      97              0.0000000000
     13872       125  DOPC      H14X          -26.6793036804      -13.0816897161       -4.7247035847  MEMB      97              0.0000000000
     13873       125  DOPC      H14Y          -25.3602197299      -11.8707424679       -4.8101914661  MEMB      97              0.0000000000
     13874       125  DOPC      C315          -27.3516547577      -11.0398830914       -4.4926398015  MEMB      97              0.0000000000
     13875       125  DOPC      H15X          -28.3824457451      -11.2108980370       -4.8772935523  MEMB      97              0.0000000000
     13876       125  DOPC      H15Y          -27.0413958583      -10.0115433800       -4.7734874208  MEMB      97              0.0000000000
     13877       125  DOPC      C316          -27.4836406163      -11.1774824438       -2.9708292209  MEMB      97              0.0000000000
     13878       125  DOPC      H16X          -27.9133129978      -12.1857296963       -2.8038018833  MEMB      97              0.0000000000
     13879       125  DOPC      H16Y          -26.4908296672      -11.1316647616       -2.4744913246  MEMB      97              0.0000000000
     13880       125  DOPC      C317          -28.4464579016      -10.1485504708       -2.3627901711  MEMB      97              0.0000000000
     13881       125  DOPC      H17X          -27.9210818647       -9.1725940488       -2.2986949037  MEMB      97              0.0000000000
     13882       125  DOPC      H17Y          -29.2978427094      -10.0088652763       -3.0668299710  MEMB      97              0.0000000000
     13883       125  DOPC      C318          -29.0176651301      -10.5263154993       -0.9893295453  MEMB      97              0.0000000000
     13884       125  DOPC      H18X          -28.2140453537      -10.6665543184       -0.2372624337  MEMB      97              0.0000000000
     13885       125  DOPC      H18Y          -29.6903554323       -9.7228863518       -0.6238391773  MEMB      97              0.0000000000
     13886       125  DOPC      H18Z          -29.6172986108      -11.4584400225       -1.0569463497  MEMB      97              0.0000000000
     13887       126  DOPC      N              27.8887088504      -11.7034121191      -17.3173687287  MEMB      98              0.0000000000
     13888       126  DOPC      C12            27.9943492603      -11.4049539029      -18.8119577258  MEMB      98              0.0000000000
     13889       126  DOPC      H12A           28.6490184371      -12.1428848177      -19.2606438414  MEMB      98              0.0000000000
     13890       126  DOPC      H12B           28.4223556088      -10.4307839928      -18.9698836532  MEMB      98              0.0000000000
     13891       126  DOPC      C13            29.1710294381      -11.4828111158      -16.6006534329  MEMB      98              0.0000000000
     13892       126  DOPC      H13A           29.0758689326      -11.8230818521      -15.5760241567  MEMB      98              0.0000000000
     13893       126  DOPC      H13B           29.9988602640      -11.9514703056      -17.1018338430  MEMB      98              0.0000000000
     13894       126  DOPC      H13C           29.3752183447      -10.4138827053      -16.5415350254  MEMB      98              0.0000000000
     13895       126  DOPC      C14            27.4234043292      -13.1112200503      -17.2262487983  MEMB      98              0.0000000000
     13896       126  DOPC      H14A           28.1360923194      -13.8063477361      -17.6409113945  MEMB      98              0.0000000000
     13897       126  DOPC      H14B           27.1106599012      -13.4043296076      -16.2307517731  MEMB      98              0.0000000000
     13898       126  DOPC      H14C           26.5249437889      -13.2107210531      -17.8575551953  MEMB      98              0.0000000000
     13899       126  DOPC      C15            26.8545222070      -10.8118522929      -16.6866860460  MEMB      98              0.0000000000
     13900       126  DOPC      H15A           27.1839587740       -9.7807414209      -16.6791286500  MEMB      98              0.0000000000
     13901       126  DOPC      H15B           26.5882387876      -11.0823421694      -15.6702537393  MEMB      98              0.0000000000
     13902       126  DOPC      H15C           25.9311863556      -10.8409109336      -17.2701282196  MEMB      98              0.0000000000
     13903       126  DOPC      C11            26.7137462590      -11.4633103890      -19.6908261153  MEMB      98              0.0000000000
     13904       126  DOPC      H11A           25.9223236951      -10.7716201521      -19.3196983139  MEMB      98              0.0000000000
     13905       126  DOPC      H11B           27.0475386803      -11.0874908886      -20.6874195805  MEMB      98              0.0000000000
     13906       126  DOPC      P              25.1228853480      -13.0332444133      -20.9647238883  MEMB      98              0.0000000000
     13907       126  DOPC      O13            25.7865020693      -12.9739144351      -22.2892025755  MEMB      98              0.0000000000
     13908       126  DOPC      O14            23.9168912703      -12.1943426754      -20.8345110301  MEMB      98              0.0000000000
     13909       126  DOPC      O12            26.2154564854      -12.7941416966      -19.8196884728  MEMB      98              0.0000000000
     13910       126  DOPC      O11            24.6911697609      -14.5649081452      -20.7443288879  MEMB      98              0.0000000000
     13911       126  DOPC      C1             25.4609902145      -15.5142641343      -19.9833750419  MEMB      98              0.0000000000
     13912       126  DOPC      HA             26.4993300122      -15.1661095289      -19.7580545593  MEMB      98              0.0000000000
     13913       126  DOPC      HB             25.5795284606      -16.4569988199      -20.5636651222  MEMB      98              0.0000000000
     13914       126  DOPC      C2             24.7346279530      -15.8652444333      -18.6544187894  MEMB      98              0.0000000000
     13915       126  DOPC      HS             23.7090670754      -16.2242289381      -18.9131276694  MEMB      98              0.0000000000
     13916       126  DOPC      O21            24.6782190051      -14.6942714965      -17.8411524848  MEMB      98              0.0000000000
     13917       126  DOPC      C21            23.5669077627      -13.9713600513      -17.9164070907  MEMB      98              0.0000000000
     13918       126  DOPC      O22            22.6262699381      -14.1520490114      -18.6691687843  MEMB      98              0.0000000000
     13919       126  DOPC      C22            23.5744329905      -12.9381747603      -16.7997051391  MEMB      98              0.0000000000
     13920       126  DOPC      H2R            22.5144601180      -12.7448160351      -16.5339834903  MEMB      98              0.0000000000
     13921       126  DOPC      H2S            24.0096468798      -11.9964952134      -17.1924002636  MEMB      98              0.0000000000
     13922       126  DOPC      C3             25.3721275484      -17.0287644394      -17.8142120271  MEMB      98              0.0000000000
     13923       126  DOPC      HX             25.0532804506      -17.9860502526      -18.2764213300  MEMB      98              0.0000000000
     13924       126  DOPC      HY             24.8985410755      -17.0281555283      -16.8024811528  MEMB      98              0.0000000000
     13925       126  DOPC      O31            26.8171068827      -17.0322605732      -17.7483311815  MEMB      98              0.0000000000
     13926       126  DOPC      C31            27.3584733862      -16.4004395579      -16.7163238771  MEMB      98              0.0000000000
     13927       126  DOPC      O32            26.7562736898      -15.7369223116      -15.8915366376  MEMB      98              0.0000000000
     13928       126  DOPC      C32            28.8790350214      -16.5522333094      -16.6957193309  MEMB      98              0.0000000000
     13929       126  DOPC      H2X            29.1162233020      -17.6372021739      -16.6875351591  MEMB      98              0.0000000000
     13930       126  DOPC      H2Y            29.2908059267      -16.0909298322      -17.6150842064  MEMB      98              0.0000000000
     13931       126  DOPC      C23            24.3288389076      -13.4668032702      -15.5625847386  MEMB      98              0.0000000000
     13932       126  DOPC      H3R            25.3889457583      -13.6755446844      -15.7963113089  MEMB      98              0.0000000000
     13933       126  DOPC      H3S            23.8851326763      -14.4342068854      -15.2409483857  MEMB      98              0.0000000000
     13934       126  DOPC      C24            24.3083760146      -12.4718168530      -14.4144290066  MEMB      98              0.0000000000
     13935       126  DOPC      H4R            23.2642910361      -12.3798923247      -14.0539656435  MEMB      98              0.0000000000
     13936       126  DOPC      H4S            24.6365164846      -11.4850249032      -14.8034999983  MEMB      98              0.0000000000
     13937       126  DOPC      C25            25.2411796546      -12.8519166590      -13.2740805688  MEMB      98              0.0000000000
     13938       126  DOPC      H5R            25.2888366145      -12.0213876468      -12.5324648096  MEMB      98              0.0000000000
     13939       126  DOPC      H5S            26.2666565737      -13.0062940434      -13.6779527531  MEMB      98              0.0000000000
     13940       126  DOPC      C26            24.8016610210      -14.1183573894      -12.5520953846  MEMB      98              0.0000000000
     13941       126  DOPC      H6R            24.4260794010      -14.8888884809      -13.2585893680  MEMB      98              0.0000000000
     13942       126  DOPC      H6S            23.9642963449      -13.8728606055      -11.8646882933  MEMB      98              0.0000000000
     13943       126  DOPC      C27            25.9614794703      -14.7239150483      -11.7719235317  MEMB      98              0.0000000000
     13944       126  DOPC      H7R            26.5144298632      -13.9155953772      -11.2462164247  MEMB      98              0.0000000000
     13945       126  DOPC      H7S            26.6887100780      -15.1470167784      -12.4920950930  MEMB      98              0.0000000000
     13946       126  DOPC      C28            25.4614137855      -15.7954863378      -10.7985838575  MEMB      98              0.0000000000
     13947       126  DOPC      H8R            26.2895745824      -16.5024695696      -10.5794244657  MEMB      98              0.0000000000
     13948       126  DOPC      H8S            24.6594830411      -16.3902404127      -11.2887392828  MEMB      98              0.0000000000
     13949       126  DOPC      C29            24.9505491466      -15.1403192259       -9.5463255222  MEMB      98              0.0000000000
     13950       126  DOPC      H9R            23.8680629381      -14.9531530311       -9.4890471667  MEMB      98              0.0000000000
     13951       126  DOPC      C210           25.7430893544      -14.7018761457       -8.5657114320  MEMB      98              0.0000000000
     13952       126  DOPC      H10R           25.2951888413      -14.1827232375       -7.7041520572  MEMB      98              0.0000000000
     13953       126  DOPC      C211           27.2416586477      -14.7936800095       -8.5580459436  MEMB      98              0.0000000000
     13954       126  DOPC      H11R           27.6203100123      -14.2386460293       -7.6733969923  MEMB      98              0.0000000000
     13955       126  DOPC      H11S           27.6021525965      -14.2540864655       -9.4583284071  MEMB      98              0.0000000000
     13956       126  DOPC      C212           27.9680020893      -16.1568626777       -8.5777445859  MEMB      98              0.0000000000
     13957       126  DOPC      H12R           28.3214654097      -16.3472752158       -9.6125412887  MEMB      98              0.0000000000
     13958       126  DOPC      H12S           27.2664306171      -16.9802692541       -8.3244916069  MEMB      98              0.0000000000
     13959       126  DOPC      C213           29.1614805884      -16.2031031834       -7.6075118527  MEMB      98              0.0000000000
     13960       126  DOPC      H13R           29.8174099149      -15.3146738562       -7.7156837052  MEMB      98              0.0000000000
     13961       126  DOPC      H13S           29.7748296384      -17.0992665381       -7.8422738137  MEMB      98              0.0000000000
     13962       126  DOPC      C214           28.6500924002      -16.3156510885       -6.1725259534  MEMB      98              0.0000000000
     13963       126  DOPC      H14R           27.7764751414      -17.0027135110       -6.2302166171  MEMB      98              0.0000000000
     13964       126  DOPC      H14S           28.2908936189      -15.3361823525       -5.7948029078  MEMB      98              0.0000000000
     13965       126  DOPC      C215           29.5746948203      -17.0097248148       -5.1830469916  MEMB      98              0.0000000000
     13966       126  DOPC      H15R           29.9826798896      -17.9175626877       -5.6590444875  MEMB      98              0.0000000000
     13967       126  DOPC      H15S           28.9311927083      -17.3274983734       -4.3269888374  MEMB      98              0.0000000000
     13968       126  DOPC      C216           30.7259239578      -16.1767883139       -4.6322686338  MEMB      98              0.0000000000
     13969       126  DOPC      H16R           31.3519678842      -15.7811744404       -5.4599274900  MEMB      98              0.0000000000
     13970       126  DOPC      H16S           31.3644412270      -16.8633031164       -4.0248230960  MEMB      98              0.0000000000
     13971       126  DOPC      C217           30.1920109970      -15.0643086967       -3.7338810874  MEMB      98              0.0000000000
     13972       126  DOPC      H17R           29.4468851153      -15.5223440628       -3.0389078325  MEMB      98              0.0000000000
     13973       126  DOPC      H17S           29.6485473456      -14.3132843205       -4.3512139574  MEMB      98              0.0000000000
     13974       126  DOPC      C218           31.2582093817      -14.3651713477       -2.9019350904  MEMB      98              0.0000000000
     13975       126  DOPC      H18R           31.8826732651      -13.6894354686       -3.5245225398  MEMB      98              0.0000000000
     13976       126  DOPC      H18S           31.9201171503      -15.1011977587       -2.3972788460  MEMB      98              0.0000000000
     13977       126  DOPC      H18T           30.7524712146      -13.7686304157       -2.1146420583  MEMB      98              0.0000000000
     13978       126  DOPC      C33            29.4208206086      -15.8845770343      -15.4147491767  MEMB      98              0.0000000000
     13979       126  DOPC      H3X            28.7735700059      -16.2552029972      -14.5808099755  MEMB      98              0.0000000000
     13980       126  DOPC      H3Y            29.2946098434      -14.7802162289      -15.4616217320  MEMB      98              0.0000000000
     13981       126  DOPC      C34            30.8587261047      -16.2602777979      -15.0539781327  MEMB      98              0.0000000000
     13982       126  DOPC      H4X            31.5728865978      -15.6736184497      -15.6584998290  MEMB      98              0.0000000000
     13983       126  DOPC      H4Y            31.0196008983      -17.3262594735      -15.3437327378  MEMB      98              0.0000000000
     13984       126  DOPC      C35            31.1442968999      -16.1552317510      -13.5416475963  MEMB      98              0.0000000000
     13985       126  DOPC      H5X            32.2257976427      -16.0337118810      -13.3438107660  MEMB      98              0.0000000000
     13986       126  DOPC      H5Y            30.8746218002      -17.1436801175      -13.0954286583  MEMB      98              0.0000000000
     13987       126  DOPC      C36            30.3473421790      -15.0894626931      -12.7695256178  MEMB      98              0.0000000000
     13988       126  DOPC      H6X            30.6131294651      -14.0592348403      -13.0465201083  MEMB      98              0.0000000000
     13989       126  DOPC      H6Y            29.2584425432      -15.1975594538      -12.9750739514  MEMB      98              0.0000000000
     13990       126  DOPC      C37            30.4382246282      -15.2699228984      -11.2455834090  MEMB      98              0.0000000000
     13991       126  DOPC      H7X            29.4398394341      -14.9950597176      -10.8299498617  MEMB      98              0.0000000000
     13992       126  DOPC      H7Y            30.5934750248      -16.3466760529      -11.0181960104  MEMB      98              0.0000000000
     13993       126  DOPC      C38            31.5163948069      -14.4304496869      -10.5468319036  MEMB      98              0.0000000000
     13994       126  DOPC      H8X            32.5148034490      -14.7196046169      -10.9386290462  MEMB      98              0.0000000000
     13995       126  DOPC      H8Y            31.5048276061      -14.6911848864       -9.4633284149  MEMB      98              0.0000000000
     13996       126  DOPC      C39            31.2846361176      -12.9587909652      -10.7600337009  MEMB      98              0.0000000000
     13997       126  DOPC      H9X            31.9560443874      -12.4996259758      -11.4955513958  MEMB      98              0.0000000000
     13998       126  DOPC      C310           30.4776372771      -12.1522281025      -10.0521801707  MEMB      98              0.0000000000
     13999       126  DOPC      H10X           30.3735976701      -11.1005532509      -10.3520776816  MEMB      98              0.0000000000
     14000       126  DOPC      C311           29.6221653869      -12.5298272036       -8.8810825503  MEMB      98              0.0000000000
     14001       126  DOPC      H11X           30.2193592414      -12.4355005278       -7.9494552168  MEMB      98              0.0000000000
     14002       126  DOPC      H11Y           29.3854922477      -13.6012436071       -8.9423660388  MEMB      98              0.0000000000
     14003       126  DOPC      C312           28.3504535514      -11.6627757918       -8.7036744165  MEMB      98              0.0000000000
     14004       126  DOPC      H12X           27.5003791835      -12.0933753509       -9.2746614793  MEMB      98              0.0000000000
     14005       126  DOPC      H12Y           28.5186911251      -10.6369502126       -9.1027040088  MEMB      98              0.0000000000
     14006       126  DOPC      C313           27.9745766780      -11.5142896227       -7.2214894831  MEMB      98              0.0000000000
     14007       126  DOPC      H13X           28.3173635542      -12.4065230317       -6.6550886172  MEMB      98              0.0000000000
     14008       126  DOPC      H13Y           28.5101416382      -10.6313313169       -6.8189731609  MEMB      98              0.0000000000
     14009       126  DOPC      C314           26.4967871106      -11.2721271975       -6.9308695765  MEMB      98              0.0000000000
     14010       126  DOPC      H14X           26.1777163762      -10.3954132857       -7.5293740545  MEMB      98              0.0000000000
     14011       126  DOPC      H14Y           25.8878753799      -12.1422251644       -7.2540913312  MEMB      98              0.0000000000
     14012       126  DOPC      C315           26.2561540024      -10.9961731543       -5.4360103887  MEMB      98              0.0000000000
     14013       126  DOPC      H15X           25.1919713721      -10.7128527448       -5.3003054787  MEMB      98              0.0000000000
     14014       126  DOPC      H15Y           26.8827161846      -10.1397322078       -5.1023500265  MEMB      98              0.0000000000
     14015       126  DOPC      C316           26.5284345715      -12.2209234964       -4.5555392242  MEMB      98              0.0000000000
     14016       126  DOPC      H16X           26.1089977232      -13.0942693759       -5.1021947102  MEMB      98              0.0000000000
     14017       126  DOPC      H16Y           27.6225448743      -12.3876777455       -4.4473698126  MEMB      98              0.0000000000
     14018       126  DOPC      C317           25.8605617658      -12.1594055994       -3.1722734008  MEMB      98              0.0000000000
     14019       126  DOPC      H17X           24.7811196042      -11.9175713948       -3.3061193835  MEMB      98              0.0000000000
     14020       126  DOPC      H17Y           25.9209442174      -13.1720181166       -2.7127682695  MEMB      98              0.0000000000
     14021       126  DOPC      C318           26.4877507591      -11.1627384748       -2.1950720085  MEMB      98              0.0000000000
     14022       126  DOPC      H18X           27.5389118934      -11.4496159582       -1.9735842725  MEMB      98              0.0000000000
     14023       126  DOPC      H18Y           26.4795673569      -10.1360627327       -2.6193615293  MEMB      98              0.0000000000
     14024       126  DOPC      H18Z           25.9245682719      -11.1512302768       -1.2372657162  MEMB      98              0.0000000000
     14025       127  DOPC      N             -20.8175529776      -21.4695781307      -20.4576776162  MEMB      99              0.0000000000
     14026       127  DOPC      C12           -21.0002741444      -22.2971315546      -19.1903017600  MEMB      99              0.0000000000
     14027       127  DOPC      H12A          -22.0425599998      -22.5233988083      -19.0557465227  MEMB      99              0.0000000000
     14028       127  DOPC      H12B          -20.6687893251      -21.6926766543      -18.3393921421  MEMB      99              0.0000000000
     14029       127  DOPC      C13           -21.2241718246      -22.2768450800      -21.6327276608  MEMB      99              0.0000000000
     14030       127  DOPC      H13A          -22.2793650744      -22.5327440637      -21.6184671615  MEMB      99              0.0000000000
     14031       127  DOPC      H13B          -21.0501043907      -21.7715317008      -22.5696427864  MEMB      99              0.0000000000
     14032       127  DOPC      H13C          -20.6715084306      -23.2195742575      -21.6611176240  MEMB      99              0.0000000000
     14033       127  DOPC      C14           -19.3732202530      -21.1276730205      -20.5446899824  MEMB      99              0.0000000000
     14034       127  DOPC      H14A          -18.8239296142      -22.0792079837      -20.5274824117  MEMB      99              0.0000000000
     14035       127  DOPC      H14B          -19.0901104102      -20.6035575278      -21.4327783564  MEMB      99              0.0000000000
     14036       127  DOPC      H14C          -19.0434736082      -20.6222790103      -19.6387238794  MEMB      99              0.0000000000
     14037       127  DOPC      C15           -21.6500382574      -20.2305322636      -20.3751274961  MEMB      99              0.0000000000
     14038       127  DOPC      H15A          -21.4965816412      -19.5567223038      -21.2095899976  MEMB      99              0.0000000000
     14039       127  DOPC      H15B          -21.4386346929      -19.7001320810      -19.4582314835  MEMB      99              0.0000000000
     14040       127  DOPC      H15C          -22.7022381040      -20.5038919280      -20.3885340527  MEMB      99              0.0000000000
     14041       127  DOPC      C11           -20.1858930029      -23.6090311106      -19.0460773281  MEMB      99              0.0000000000
     14042       127  DOPC      H11A          -20.4836254789      -24.0644176383      -18.0766772334  MEMB      99              0.0000000000
     14043       127  DOPC      H11B          -20.4586330257      -24.3428419692      -19.8361489472  MEMB      99              0.0000000000
     14044       127  DOPC      P             -18.0788937160      -22.6343084650      -17.8469256954  MEMB      99              0.0000000000
     14045       127  DOPC      O13           -18.9608925782      -21.5101900787      -17.4762610232  MEMB      99              0.0000000000
     14046       127  DOPC      O14           -16.7131661018      -22.2740351379      -18.2542865001  MEMB      99              0.0000000000
     14047       127  DOPC      O12           -18.7774598597      -23.3805701432      -19.0714210370  MEMB      99              0.0000000000
     14048       127  DOPC      O11           -18.0348304349      -23.7370981980      -16.7049046969  MEMB      99              0.0000000000
     14049       127  DOPC      C1            -17.7896204031      -25.1129394406      -17.0317950138  MEMB      99              0.0000000000
     14050       127  DOPC      HA            -16.7022735840      -25.3030769009      -17.1835813014  MEMB      99              0.0000000000
     14051       127  DOPC      HB            -18.3007530698      -25.4001693867      -17.9829465654  MEMB      99              0.0000000000
     14052       127  DOPC      C2            -18.3642600878      -26.1138110466      -15.9772358868  MEMB      99              0.0000000000
     14053       127  DOPC      HS            -18.3546354300      -27.1110457533      -16.4776570403  MEMB      99              0.0000000000
     14054       127  DOPC      O21           -19.6822543660      -25.7972013904      -15.5572128643  MEMB      99              0.0000000000
     14055       127  DOPC      C21           -20.6719777242      -26.0982307530      -16.3335286637  MEMB      99              0.0000000000
     14056       127  DOPC      O22           -20.6470010463      -26.3285005802      -17.5293174354  MEMB      99              0.0000000000
     14057       127  DOPC      C22           -21.9045884669      -26.2569957283      -15.4392236736  MEMB      99              0.0000000000
     14058       127  DOPC      H2R           -21.6099333037      -26.8960079763      -14.5768944465  MEMB      99              0.0000000000
     14059       127  DOPC      H2S           -22.6302506319      -26.7965857655      -16.0670751959  MEMB      99              0.0000000000
     14060       127  DOPC      C3            -17.5844179292      -26.2845268877      -14.6426543174  MEMB      99              0.0000000000
     14061       127  DOPC      HX            -16.6722285437      -26.8786793053      -14.8566623881  MEMB      99              0.0000000000
     14062       127  DOPC      HY            -18.2215450272      -26.9056391278      -13.9686199317  MEMB      99              0.0000000000
     14063       127  DOPC      O31           -17.1963070353      -25.0534033090      -14.0118274824  MEMB      99              0.0000000000
     14064       127  DOPC      C31           -17.9491758489      -24.5091223262      -13.0801130912  MEMB      99              0.0000000000
     14065       127  DOPC      O32           -18.9723634368      -24.9723859342      -12.6213514939  MEMB      99              0.0000000000
     14066       127  DOPC      C32           -17.2847308540      -23.2248803257      -12.5835808492  MEMB      99              0.0000000000
     14067       127  DOPC      H2X           -17.7121797619      -22.3906051382      -13.1787363606  MEMB      99              0.0000000000
     14068       127  DOPC      H2Y           -17.5721966747      -23.0675673710      -11.5237511933  MEMB      99              0.0000000000
     14069       127  DOPC      C23           -22.5117616414      -24.9308691034      -14.9214349500  MEMB      99              0.0000000000
     14070       127  DOPC      H3R           -23.4857092346      -25.1669567956      -14.4358011592  MEMB      99              0.0000000000
     14071       127  DOPC      H3S           -22.7012574749      -24.2404161985      -15.7726149665  MEMB      99              0.0000000000
     14072       127  DOPC      C24           -21.6220727870      -24.2573940436      -13.8615663956  MEMB      99              0.0000000000
     14073       127  DOPC      H4R           -20.6197816932      -24.0712929972      -14.3117749834  MEMB      99              0.0000000000
     14074       127  DOPC      H4S           -21.4779302029      -24.9515147805      -13.0075186153  MEMB      99              0.0000000000
     14075       127  DOPC      C25           -22.1138124900      -22.8899561464      -13.3654206678  MEMB      99              0.0000000000
     14076       127  DOPC      H5R           -22.8512544774      -22.5560524728      -14.1013474737  MEMB      99              0.0000000000
     14077       127  DOPC      H5S           -21.2721465371      -22.1660982222      -13.4296996561  MEMB      99              0.0000000000
     14078       127  DOPC      C26           -22.7070114974      -22.8471294091      -11.9463238797  MEMB      99              0.0000000000
     14079       127  DOPC      H6R           -23.5586762494      -23.5585448137      -11.8998293389  MEMB      99              0.0000000000
     14080       127  DOPC      H6S           -23.1290200123      -21.8335958450      -11.7580125855  MEMB      99              0.0000000000
     14081       127  DOPC      C27           -21.6953865852      -23.1874569975      -10.8338606021  MEMB      99              0.0000000000
     14082       127  DOPC      H7R           -21.2746206954      -24.1973930119      -11.0435628678  MEMB      99              0.0000000000
     14083       127  DOPC      H7S           -22.2223102797      -23.2590882805       -9.8550230338  MEMB      99              0.0000000000
     14084       127  DOPC      C28           -20.5045861272      -22.2141701069      -10.7267734605  MEMB      99              0.0000000000
     14085       127  DOPC      H8R           -20.1476645186      -21.9409624231      -11.7428767465  MEMB      99              0.0000000000
     14086       127  DOPC      H8S           -19.6647677997      -22.7746238019      -10.2588035464  MEMB      99              0.0000000000
     14087       127  DOPC      C29           -20.8690199153      -20.9815719421       -9.9392691739  MEMB      99              0.0000000000
     14088       127  DOPC      H9R           -21.7461952950      -20.4364893374      -10.3167008788  MEMB      99              0.0000000000
     14089       127  DOPC      C210          -20.2584216238      -20.5196276653       -8.8328683959  MEMB      99              0.0000000000
     14090       127  DOPC      H10R          -20.6807231548      -19.6339229561       -8.3312647085  MEMB      99              0.0000000000
     14091       127  DOPC      C211          -19.0701385320      -21.1223233091       -8.1227125059  MEMB      99              0.0000000000
     14092       127  DOPC      H11R          -18.3438366388      -20.3248582910       -7.8578672776  MEMB      99              0.0000000000
     14093       127  DOPC      H11S          -18.5206681253      -21.8629107045       -8.7449097610  MEMB      99              0.0000000000
     14094       127  DOPC      C212          -19.5811760473      -21.8202744132       -6.8576332547  MEMB      99              0.0000000000
     14095       127  DOPC      H12R          -20.1553205630      -22.7270979339       -7.1498304431  MEMB      99              0.0000000000
     14096       127  DOPC      H12S          -20.2967522889      -21.1625041517       -6.3206898141  MEMB      99              0.0000000000
     14097       127  DOPC      C213          -18.5098570871      -22.2038225219       -5.8318746977  MEMB      99              0.0000000000
     14098       127  DOPC      H13R          -17.8159574594      -21.3592104668       -5.6442617446  MEMB      99              0.0000000000
     14099       127  DOPC      H13S          -17.8783294796      -23.0152752527       -6.2335333298  MEMB      99              0.0000000000
     14100       127  DOPC      C214          -19.2043478095      -22.6053883759       -4.5172214798  MEMB      99              0.0000000000
     14101       127  DOPC      H14R          -20.1821058585      -23.0761734042       -4.7632507322  MEMB      99              0.0000000000
     14102       127  DOPC      H14S          -19.4146745535      -21.6647665181       -3.9630808954  MEMB      99              0.0000000000
     14103       127  DOPC      C215          -18.4115894086      -23.5806573337       -3.6387493812  MEMB      99              0.0000000000
     14104       127  DOPC      H15R          -17.4101936421      -23.1579034725       -3.4732358147  MEMB      99              0.0000000000
     14105       127  DOPC      H15S          -18.2590886056      -24.5310227184       -4.1953562127  MEMB      99              0.0000000000
     14106       127  DOPC      C216          -19.0337585656      -23.9222771520       -2.2681715129  MEMB      99              0.0000000000
     14107       127  DOPC      H16R          -18.2633238000      -24.4387780727       -1.6511025068  MEMB      99              0.0000000000
     14108       127  DOPC      H16S          -19.8511871373      -24.6546866632       -2.4461284859  MEMB      99              0.0000000000
     14109       127  DOPC      C217          -19.6231915533      -22.7558108253       -1.4542027728  MEMB      99              0.0000000000
     14110       127  DOPC      H17R          -20.3187515814      -23.1906188972       -0.6969828132  MEMB      99              0.0000000000
     14111       127  DOPC      H17S          -20.2418879393      -22.1026312140       -2.1039552270  MEMB      99              0.0000000000
     14112       127  DOPC      C218          -18.6040683200      -21.8915483631       -0.7111741596  MEMB      99              0.0000000000
     14113       127  DOPC      H18R          -19.1194214610      -21.0965160692       -0.1294025959  MEMB      99              0.0000000000
     14114       127  DOPC      H18S          -17.9125627381      -21.3937935938       -1.4158374685  MEMB      99              0.0000000000
     14115       127  DOPC      H18T          -18.0033463411      -22.5072507636       -0.0118223594  MEMB      99              0.0000000000
     14116       127  DOPC      C33           -15.7394828943      -23.2307849249      -12.6933946182  MEMB      99              0.0000000000
     14117       127  DOPC      H3X           -15.3889738733      -23.7299943424      -13.6078632144  MEMB      99              0.0000000000
     14118       127  DOPC      H3Y           -15.3041841952      -23.7601829055      -11.8277835845  MEMB      99              0.0000000000
     14119       127  DOPC      C34           -15.1833552872      -21.8241620074      -12.7961759284  MEMB      99              0.0000000000
     14120       127  DOPC      H4X           -15.7473263542      -21.2647902385      -12.0447839165  MEMB      99              0.0000000000
     14121       127  DOPC      H4Y           -15.4182101839      -21.4038807865      -13.8044464781  MEMB      99              0.0000000000
     14122       127  DOPC      C35           -13.7186637136      -21.5580436863      -12.4297092698  MEMB      99              0.0000000000
     14123       127  DOPC      H5X           -13.6439897401      -20.4645963363      -12.5563328253  MEMB      99              0.0000000000
     14124       127  DOPC      H5Y           -13.0185910236      -22.0450572721      -13.1434718765  MEMB      99              0.0000000000
     14125       127  DOPC      C36           -13.2703310600      -21.7866126226      -10.9730037122  MEMB      99              0.0000000000
     14126       127  DOPC      H6X           -13.0062311981      -22.8572684149      -10.8588116409  MEMB      99              0.0000000000
     14127       127  DOPC      H6Y           -12.3202514448      -21.2221319021      -10.8183850260  MEMB      99              0.0000000000
     14128       127  DOPC      C37           -14.2448001874      -21.3193928869       -9.8626055994  MEMB      99              0.0000000000
     14129       127  DOPC      H7X           -14.0149034391      -20.2607008461       -9.6530326570  MEMB      99              0.0000000000
     14130       127  DOPC      H7Y           -15.3077512816      -21.3261211782      -10.1779210323  MEMB      99              0.0000000000
     14131       127  DOPC      C38           -14.1551790645      -22.1541595370       -8.5692420373  MEMB      99              0.0000000000
     14132       127  DOPC      H8X           -14.7004024974      -21.6602758744       -7.7368155655  MEMB      99              0.0000000000
     14133       127  DOPC      H8Y           -13.0899700319      -22.2777158867       -8.2699646388  MEMB      99              0.0000000000
     14134       127  DOPC      C39           -14.7850240783      -23.4612970881       -8.9407818201  MEMB      99              0.0000000000
     14135       127  DOPC      H9X           -14.6834269568      -23.6787832604      -10.0037454675  MEMB      99              0.0000000000
     14136       127  DOPC      C310          -15.3969154437      -24.3876676606       -8.2086321714  MEMB      99              0.0000000000
     14137       127  DOPC      H10X          -15.7067928663      -25.3132541612       -8.7142880764  MEMB      99              0.0000000000
     14138       127  DOPC      C311          -15.6329231239      -24.3942676278       -6.7380046335  MEMB      99              0.0000000000
     14139       127  DOPC      H11X          -16.6481885981      -24.7771388819       -6.5181640091  MEMB      99              0.0000000000
     14140       127  DOPC      H11Y          -15.5371234418      -23.3966389429       -6.2651033738  MEMB      99              0.0000000000
     14141       127  DOPC      C312          -14.6238895174      -25.3756077593       -6.1629189439  MEMB      99              0.0000000000
     14142       127  DOPC      H12X          -13.5921270735      -24.9612642766       -6.1931208353  MEMB      99              0.0000000000
     14143       127  DOPC      H12Y          -14.6018833485      -26.3189491344       -6.7640124913  MEMB      99              0.0000000000
     14144       127  DOPC      C313          -15.0106843603      -25.8014441844       -4.7551709472  MEMB      99              0.0000000000
     14145       127  DOPC      H13X          -14.0376360230      -25.9564431250       -4.2752501231  MEMB      99              0.0000000000
     14146       127  DOPC      H13Y          -15.4828041302      -25.0213968662       -4.1442779094  MEMB      99              0.0000000000
     14147       127  DOPC      C314          -15.8760823512      -27.0609001936       -4.8622766972  MEMB      99              0.0000000000
     14148       127  DOPC      H14X          -16.5669722076      -26.9452160683       -5.7278650441  MEMB      99              0.0000000000
     14149       127  DOPC      H14Y          -15.1791848598      -27.8906118565       -5.1007609672  MEMB      99              0.0000000000
     14150       127  DOPC      C315          -16.7153607248      -27.5137155600       -3.6700073257  MEMB      99              0.0000000000
     14151       127  DOPC      H15X          -17.4036440968      -26.7333882799       -3.2800839232  MEMB      99              0.0000000000
     14152       127  DOPC      H15Y          -16.0217060895      -27.7806304748       -2.8531768501  MEMB      99              0.0000000000
     14153       127  DOPC      C316          -17.5249681308      -28.7567200192       -4.0757587634  MEMB      99              0.0000000000
     14154       127  DOPC      H16X          -18.5339146622      -28.4606691914       -4.4056915561  MEMB      99              0.0000000000
     14155       127  DOPC      H16Y          -17.0564749058      -29.2964165422       -4.9184798753  MEMB      99              0.0000000000
     14156       127  DOPC      C317          -17.7115089391      -29.7600346478       -2.9656529660  MEMB      99              0.0000000000
     14157       127  DOPC      H17X          -17.8331953496      -30.8013762616       -3.3303144321  MEMB      99              0.0000000000
     14158       127  DOPC      H17Y          -16.8255852318      -29.7853908641       -2.3443388031  MEMB      99              0.0000000000
     14159       127  DOPC      C318          -18.8833054293      -29.3620372435       -2.1608951486  MEMB      99              0.0000000000
     14160       127  DOPC      H18X          -19.8274180932      -29.6300671078       -2.6777902453  MEMB      99              0.0000000000
     14161       127  DOPC      H18Y          -18.8578830951      -29.8302817810       -1.1467781336  MEMB      99              0.0000000000
     14162       127  DOPC      H18Z          -18.8882305469      -28.2528463621       -2.0190496533  MEMB      99              0.0000000000
     14163       128  DOPC      N              -8.8221050017       25.8101240383      -18.1128917913  MEMB      100             0.0000000000
     14164       128  DOPC      C12           -10.1431589115       25.7532867403      -18.9030816260  MEMB      100             0.0000000000
     14165       128  DOPC      H12A          -10.8506016076       25.0555455545      -18.4436765188  MEMB      100             0.0000000000
     14166       128  DOPC      H12B           -9.9435651814       25.4047134350      -19.9058913223  MEMB      100             0.0000000000
     14167       128  DOPC      C13            -9.1513828697       26.0466382522      -16.6683175109  MEMB      100             0.0000000000
     14168       128  DOPC      H13A           -9.7670450174       25.2323647259      -16.2819252620  MEMB      100             0.0000000000
     14169       128  DOPC      H13B           -8.2749787818       26.1316498894      -16.0417939580  MEMB      100             0.0000000000
     14170       128  DOPC      H13C           -9.7753053012       26.9316471938      -16.5612025344  MEMB      100             0.0000000000
     14171       128  DOPC      C14            -7.9707384963       26.8908203521      -18.6917521725  MEMB      100             0.0000000000
     14172       128  DOPC      H14A           -8.5854312898       27.7611351971      -18.9277689665  MEMB      100             0.0000000000
     14173       128  DOPC      H14B           -7.1520512251       27.1677435622      -18.0504655785  MEMB      100             0.0000000000
     14174       128  DOPC      H14C           -7.5658091825       26.5821137061      -19.6535205638  MEMB      100             0.0000000000
     14175       128  DOPC      C15            -8.0286448184       24.5546872932      -18.2390293496  MEMB      100             0.0000000000
     14176       128  DOPC      H15A           -7.8559563352       24.2973311190      -19.2796057055  MEMB      100             0.0000000000
     14177       128  DOPC      H15B           -8.5068088314       23.7084153143      -17.7617336341  MEMB      100             0.0000000000
     14178       128  DOPC      H15C           -7.0552329177       24.6600621393      -17.7694862222  MEMB      100             0.0000000000
     14179       128  DOPC      C11           -10.9310267777       27.0792435848      -19.1186381958  MEMB      100             0.0000000000
     14180       128  DOPC      H11A          -11.8818729366       26.8121390605      -19.6447589590  MEMB      100             0.0000000000
     14181       128  DOPC      H11B          -11.2213417040       27.5149953843      -18.1377069892  MEMB      100             0.0000000000
     14182       128  DOPC      P             -10.8302772521       29.4226946360      -20.2254012596  MEMB      100             0.0000000000
     14183       128  DOPC      O13           -12.2790164003       29.2514074558      -20.5589466037  MEMB      100             0.0000000000
     14184       128  DOPC      O14           -10.0093944206       30.0747543257      -21.2662258265  MEMB      100             0.0000000000
     14185       128  DOPC      O12           -10.1796374298       28.0100099482      -19.9006444343  MEMB      100             0.0000000000
     14186       128  DOPC      O11           -10.6641774360       30.1779155030      -18.8472430223  MEMB      100             0.0000000000
     14187       128  DOPC      C1             -9.4232314216       30.2159579823      -18.1288765682  MEMB      100             0.0000000000
     14188       128  DOPC      HA             -9.0882273058       31.2771500641      -18.0198018125  MEMB      100             0.0000000000
     14189       128  DOPC      HB             -8.6192106065       29.6710294314      -18.6640830614  MEMB      100             0.0000000000
     14190       128  DOPC      C2             -9.5806965990       29.6188048456      -16.6996978415  MEMB      100             0.0000000000
     14191       128  DOPC      HS            -10.0358762411       28.6119415118      -16.8065150336  MEMB      100             0.0000000000
     14192       128  DOPC      O21           -10.3612186081       30.5279806646      -15.9404005883  MEMB      100             0.0000000000
     14193       128  DOPC      C21           -11.6251821269       30.2386401524      -15.9153713642  MEMB      100             0.0000000000
     14194       128  DOPC      O22           -12.1565725864       29.2110108967      -16.3019807755  MEMB      100             0.0000000000
     14195       128  DOPC      C22           -12.3360589654       31.3231944161      -15.1436232430  MEMB      100             0.0000000000
     14196       128  DOPC      H2R           -13.3530371962       30.9386541423      -14.9763984828  MEMB      100             0.0000000000
     14197       128  DOPC      H2S           -12.3833259374       32.2374476070      -15.7694604342  MEMB      100             0.0000000000
     14198       128  DOPC      C3             -8.2632408097       29.4368169476      -15.9144512806  MEMB      100             0.0000000000
     14199       128  DOPC      HX             -7.9259043752       30.4659451563      -15.6620516948  MEMB      100             0.0000000000
     14200       128  DOPC      HY             -7.5517063362       28.9640770796      -16.6175897590  MEMB      100             0.0000000000
     14201       128  DOPC      O31            -8.3842355424       28.6531915869      -14.6878190276  MEMB      100             0.0000000000
     14202       128  DOPC      C31            -7.1556155954       28.6143157165      -14.1218106294  MEMB      100             0.0000000000
     14203       128  DOPC      O32            -6.1578604292       29.0072115567      -14.6939488763  MEMB      100             0.0000000000
     14204       128  DOPC      C32            -7.1738474967       28.0009733832      -12.7226612246  MEMB      100             0.0000000000
     14205       128  DOPC      H2X            -8.2006601580       27.6742328000      -12.4728418078  MEMB      100             0.0000000000
     14206       128  DOPC      H2Y            -6.5020138698       27.1206686060      -12.7727619049  MEMB      100             0.0000000000
     14207       128  DOPC      C23           -11.6092941331       31.5967021958      -13.8118585289  MEMB      100             0.0000000000
     14208       128  DOPC      H3R           -12.2330061798       32.2681667755      -13.1826532398  MEMB      100             0.0000000000
     14209       128  DOPC      H3S           -10.6598226151       32.1400100469      -14.0339734748  MEMB      100             0.0000000000
     14210       128  DOPC      C24           -11.2771636979       30.3097099244      -13.0359680825  MEMB      100             0.0000000000
     14211       128  DOPC      H4R           -10.6990602406       29.6066701410      -13.6778508546  MEMB      100             0.0000000000
     14212       128  DOPC      H4S           -12.2107861783       29.7854387651      -12.7350273448  MEMB      100             0.0000000000
     14213       128  DOPC      C25           -10.3814947025       30.5872840035      -11.8354229314  MEMB      100             0.0000000000
     14214       128  DOPC      H5R            -9.7653393462       31.4908564967      -12.0478239479  MEMB      100             0.0000000000
     14215       128  DOPC      H5S            -9.6800964207       29.7359373672      -11.6835632418  MEMB      100             0.0000000000
     14216       128  DOPC      C26           -11.1685239489       30.7868771063      -10.5470602377  MEMB      100             0.0000000000
     14217       128  DOPC      H6R           -11.9756924059       31.5409111050      -10.6839505019  MEMB      100             0.0000000000
     14218       128  DOPC      H6S           -10.4343708357       31.2027729327       -9.8218590210  MEMB      100             0.0000000000
     14219       128  DOPC      C27           -11.7629365837       29.4828462308       -9.9840830237  MEMB      100             0.0000000000
     14220       128  DOPC      H7R           -11.3893043794       28.6122671816      -10.5705481647  MEMB      100             0.0000000000
     14221       128  DOPC      H7S           -12.8644659041       29.4949850240      -10.1071566360  MEMB      100             0.0000000000
     14222       128  DOPC      C28           -11.4111794934       29.2490067550       -8.5047674212  MEMB      100             0.0000000000
     14223       128  DOPC      H8R           -10.3464510902       28.9205277314       -8.4833934592  MEMB      100             0.0000000000
     14224       128  DOPC      H8S           -12.0176853260       28.4067662334       -8.1030179491  MEMB      100             0.0000000000
     14225       128  DOPC      C29           -11.6269450549       30.5028672781       -7.6927830027  MEMB      100             0.0000000000
     14226       128  DOPC      H9R           -12.5698620590       31.0363402295       -7.8892125943  MEMB      100             0.0000000000
     14227       128  DOPC      C210          -10.7448628608       31.0323717622       -6.8284026494  MEMB      100             0.0000000000
     14228       128  DOPC      H10R          -10.9966271703       31.9746978770       -6.3166081869  MEMB      100             0.0000000000
     14229       128  DOPC      C211           -9.3847138508       30.4674541550       -6.5035515355  MEMB      100             0.0000000000
     14230       128  DOPC      H11R           -8.8410148919       31.1735149246       -5.8398207398  MEMB      100             0.0000000000
     14231       128  DOPC      H11S           -8.7716704887       30.3605731054       -7.4275919224  MEMB      100             0.0000000000
     14232       128  DOPC      C212           -9.4398211517       29.0992566040       -5.7936673709  MEMB      100             0.0000000000
     14233       128  DOPC      H12R           -8.4183296202       28.8224864995       -5.4531481393  MEMB      100             0.0000000000
     14234       128  DOPC      H12S           -9.7540189479       28.3134412941       -6.5172155388  MEMB      100             0.0000000000
     14235       128  DOPC      C213          -10.4103579801       29.0439671340       -4.6005710497  MEMB      100             0.0000000000
     14236       128  DOPC      H13R          -10.3610677117       28.0173785289       -4.1765521745  MEMB      100             0.0000000000
     14237       128  DOPC      H13S          -11.4417199254       29.2026521831       -4.9792136652  MEMB      100             0.0000000000
     14238       128  DOPC      C214          -10.1430681769       30.0880693016       -3.5090346146  MEMB      100             0.0000000000
     14239       128  DOPC      H14R          -10.4701695529       31.0847860074       -3.8725994137  MEMB      100             0.0000000000
     14240       128  DOPC      H14S           -9.0466633632       30.1352501523       -3.3565962682  MEMB      100             0.0000000000
     14241       128  DOPC      C215          -10.7843420109       29.8208715896       -2.1293620892  MEMB      100             0.0000000000
     14242       128  DOPC      H15R          -10.3451226465       28.8939076879       -1.7093980145  MEMB      100             0.0000000000
     14243       128  DOPC      H15S          -11.8768895730       29.6771156463       -2.2089968585  MEMB      100             0.0000000000
     14244       128  DOPC      C216          -10.5327828107       31.0174958357       -1.2125810853  MEMB      100             0.0000000000
     14245       128  DOPC      H16R          -11.3027547410       31.7968534067       -1.4066781891  MEMB      100             0.0000000000
     14246       128  DOPC      H16S           -9.5510622011       31.4113393076       -1.5469580463  MEMB      100             0.0000000000
     14247       128  DOPC      C217          -10.3688652934       30.8095602309        0.2990411025  MEMB      100             0.0000000000
     14248       128  DOPC      H17R          -11.2734916515       31.1491499865        0.8307032992  MEMB      100             0.0000000000
     14249       128  DOPC      H17S           -9.6091933447       31.5579731508        0.6123207769  MEMB      100             0.0000000000
     14250       128  DOPC      C218           -9.9780607004       29.4039771281        0.7793992468  MEMB      100             0.0000000000
     14251       128  DOPC      H18R           -9.0507536368       29.0429907062        0.2992729100  MEMB      100             0.0000000000
     14252       128  DOPC      H18S          -10.7720253421       28.6609324445        0.5655435456  MEMB      100             0.0000000000
     14253       128  DOPC      H18T           -9.7947305299       29.4239150876        1.8737579144  MEMB      100             0.0000000000
     14254       128  DOPC      C33            -6.6294476709       28.9360355252      -11.6100831684  MEMB      100             0.0000000000
     14255       128  DOPC      H3X            -7.4247317754       29.6587109874      -11.3158643278  MEMB      100             0.0000000000
     14256       128  DOPC      H3Y            -5.7555807751       29.5090736308      -12.0023446226  MEMB      100             0.0000000000
     14257       128  DOPC      C34            -6.1419055071       28.2118695079      -10.3402107767  MEMB      100             0.0000000000
     14258       128  DOPC      H4X            -5.6505046252       28.9443607782       -9.6690953979  MEMB      100             0.0000000000
     14259       128  DOPC      H4Y            -5.3596498531       27.4668196117      -10.6077762346  MEMB      100             0.0000000000
     14260       128  DOPC      C35            -7.2598072588       27.5508795577       -9.5274352694  MEMB      100             0.0000000000
     14261       128  DOPC      H5X            -8.1986951174       28.1430780682       -9.5904016034  MEMB      100             0.0000000000
     14262       128  DOPC      H5Y            -6.9615575243       27.5333119216       -8.4521328071  MEMB      100             0.0000000000
     14263       128  DOPC      C36            -7.4723065636       26.1135232969       -9.9850576722  MEMB      100             0.0000000000
     14264       128  DOPC      H6X            -7.8204379457       26.0890167473      -11.0403289981  MEMB      100             0.0000000000
     14265       128  DOPC      H6Y            -6.4925272981       25.5888452736       -9.9345595454  MEMB      100             0.0000000000
     14266       128  DOPC      C37            -8.4577803547       25.3159697889       -9.1501895030  MEMB      100             0.0000000000
     14267       128  DOPC      H7X            -8.2634969720       24.2489289227       -9.4253892367  MEMB      100             0.0000000000
     14268       128  DOPC      H7Y            -8.2276471111       25.4119140866       -8.0675969034  MEMB      100             0.0000000000
     14269       128  DOPC      C38            -9.9148122650       25.7169292921       -9.4314646478  MEMB      100             0.0000000000
     14270       128  DOPC      H8X           -10.0084323311       26.2825827934      -10.3816428836  MEMB      100             0.0000000000
     14271       128  DOPC      H8Y           -10.2649379940       26.4116727494       -8.6329549953  MEMB      100             0.0000000000
     14272       128  DOPC      C39           -10.7026884801       24.4405371397       -9.4994296969  MEMB      100             0.0000000000
     14273       128  DOPC      H9X           -10.8381741707       24.0127437527      -10.5036915723  MEMB      100             0.0000000000
     14274       128  DOPC      C310          -11.2167692069       23.8355196624       -8.4218068290  MEMB      100             0.0000000000
     14275       128  DOPC      H10X          -11.8525103123       22.9430207350       -8.5155049644  MEMB      100             0.0000000000
     14276       128  DOPC      C311          -11.0709565560       24.3858002088       -7.0373757156  MEMB      100             0.0000000000
     14277       128  DOPC      H11X          -10.2562437257       25.1404337903       -6.9315815148  MEMB      100             0.0000000000
     14278       128  DOPC      H11Y          -10.8934552708       23.6052741861       -6.2685709792  MEMB      100             0.0000000000
     14279       128  DOPC      C312          -12.4120678551       25.0874051731       -6.8789247296  MEMB      100             0.0000000000
     14280       128  DOPC      H12X          -13.2355578812       24.3504854917       -6.7339863543  MEMB      100             0.0000000000
     14281       128  DOPC      H12Y          -12.6658887539       25.7180805056       -7.7720006221  MEMB      100             0.0000000000
     14282       128  DOPC      C313          -12.3959451923       26.0738315710       -5.7427478264  MEMB      100             0.0000000000
     14283       128  DOPC      H13X          -11.6051853947       26.8447137952       -5.8784635855  MEMB      100             0.0000000000
     14284       128  DOPC      H13Y          -13.3879740544       26.5803810387       -5.8356599463  MEMB      100             0.0000000000
     14285       128  DOPC      C314          -12.2893457594       25.4377804192       -4.3612659808  MEMB      100             0.0000000000
     14286       128  DOPC      H14X          -12.5586427129       24.3572918536       -4.4114974624  MEMB      100             0.0000000000
     14287       128  DOPC      H14Y          -11.2504342581       25.5124394277       -3.9725788279  MEMB      100             0.0000000000
     14288       128  DOPC      C315          -13.2876812502       26.1511246680       -3.4583854928  MEMB      100             0.0000000000
     14289       128  DOPC      H15X          -13.2211219913       25.7758935743       -2.4146909914  MEMB      100             0.0000000000
     14290       128  DOPC      H15Y          -14.2830429464       25.9064940675       -3.8812207214  MEMB      100             0.0000000000
     14291       128  DOPC      C316          -13.1380135938       27.6741357685       -3.5102740480  MEMB      100             0.0000000000
     14292       128  DOPC      H16X          -12.1641092777       27.8683556164       -3.0242470119  MEMB      100             0.0000000000
     14293       128  DOPC      H16Y          -13.0943507223       28.0763069607       -4.5421518273  MEMB      100             0.0000000000
     14294       128  DOPC      C317          -14.2444013010       28.4717598766       -2.8354598091  MEMB      100             0.0000000000
     14295       128  DOPC      H17X          -14.0338534032       29.5571378491       -2.9851003469  MEMB      100             0.0000000000
     14296       128  DOPC      H17Y          -15.2214195559       28.2611358400       -3.3226830605  MEMB      100             0.0000000000
     14297       128  DOPC      C318          -14.2889310846       28.1695374511       -1.3521434987  MEMB      100             0.0000000000
     14298       128  DOPC      H18X          -13.2509803746       28.1810782370       -0.9536772003  MEMB      100             0.0000000000
     14299       128  DOPC      H18Y          -14.9051916675       28.9191302201       -0.8158069900  MEMB      100             0.0000000000
     14300       128  DOPC      H18Z          -14.6909194411       27.1603530715       -1.1420658625  MEMB      100             0.0000000000
     14301       129  DOPC      N              24.3281298908       12.9738227336      -18.0898713569  MEMB      101             0.0000000000
     14302       129  DOPC      C12            23.2849252590       13.3374304286      -19.1428791362  MEMB      101             0.0000000000
     14303       129  DOPC      H12A           22.5849999484       12.5175516815      -19.2684896535  MEMB      101             0.0000000000
     14304       129  DOPC      H12B           23.7787192351       13.4361304652      -20.1083283356  MEMB      101             0.0000000000
     14305       129  DOPC      C13            25.3283674324       14.0815523472      -18.0067765368  MEMB      101             0.0000000000
     14306       129  DOPC      H13A           25.9521521122       14.0992810173      -18.8878018335  MEMB      101             0.0000000000
     14307       129  DOPC      H13B           24.7806255180       15.0326567475      -18.0118523933  MEMB      101             0.0000000000
     14308       129  DOPC      H13C           25.9268817313       14.0416159768      -17.1142459171  MEMB      101             0.0000000000
     14309       129  DOPC      C14            25.0080324690       11.7013704876      -18.4692848365  MEMB      101             0.0000000000
     14310       129  DOPC      H14A           25.3315671030       11.7330251522      -19.5046439818  MEMB      101             0.0000000000
     14311       129  DOPC      H14B           25.8657781256       11.5223667314      -17.8357667649  MEMB      101             0.0000000000
     14312       129  DOPC      H14C           24.3302015988       10.8558289337      -18.3725192472  MEMB      101             0.0000000000
     14313       129  DOPC      C15            23.6563672627       12.8173780087      -16.7603054198  MEMB      101             0.0000000000
     14314       129  DOPC      H15A           22.9545225593       11.9851219155      -16.7647381093  MEMB      101             0.0000000000
     14315       129  DOPC      H15B           23.1084132852       13.7293431404      -16.5353058577  MEMB      101             0.0000000000
     14316       129  DOPC      H15C           24.3797869556       12.6483263584      -15.9704074894  MEMB      101             0.0000000000
     14317       129  DOPC      C11            22.4565024758       14.6283359895      -18.9204403911  MEMB      101             0.0000000000
     14318       129  DOPC      H11A           21.6618938054       14.6372743616      -19.7085544841  MEMB      101             0.0000000000
     14319       129  DOPC      H11B           21.9204422941       14.5749340191      -17.9467583257  MEMB      101             0.0000000000
     14320       129  DOPC      P              23.0666199142       16.9122598452      -20.0703018054  MEMB      101             0.0000000000
     14321       129  DOPC      O13            22.8300182100       16.2133732572      -21.3502071517  MEMB      101             0.0000000000
     14322       129  DOPC      O14            24.1529345577       17.9207493018      -20.0928460113  MEMB      101             0.0000000000
     14323       129  DOPC      O12            23.2726062535       15.8092006135      -18.9403402914  MEMB      101             0.0000000000
     14324       129  DOPC      O11            21.7010434749       17.6768419508      -19.7872478576  MEMB      101             0.0000000000
     14325       129  DOPC      C1             20.7041659417       17.3728002941      -18.8140167564  MEMB      101             0.0000000000
     14326       129  DOPC      HA             20.5067573443       16.2848757185      -18.7091389062  MEMB      101             0.0000000000
     14327       129  DOPC      HB             19.7467945841       17.8514895067      -19.1180970440  MEMB      101             0.0000000000
     14328       129  DOPC      C2             21.0991201983       17.9541409872      -17.4422719210  MEMB      101             0.0000000000
     14329       129  DOPC      HS             21.3828658566       19.0144224066      -17.6690018939  MEMB      101             0.0000000000
     14330       129  DOPC      O21            22.1691592243       17.1491068891      -16.9205442382  MEMB      101             0.0000000000
     14331       129  DOPC      C21            23.0592718374       17.8774162941      -16.2924489845  MEMB      101             0.0000000000
     14332       129  DOPC      O22            23.0120903165       19.0915843800      -16.1723403280  MEMB      101             0.0000000000
     14333       129  DOPC      C22            24.1083471571       16.9581078803      -15.6686378071  MEMB      101             0.0000000000
     14334       129  DOPC      H2R            24.6432612578       16.4515935889      -16.4967484071  MEMB      101             0.0000000000
     14335       129  DOPC      H2S            23.5784145725       16.1964071628      -15.0638062509  MEMB      101             0.0000000000
     14336       129  DOPC      C3             19.9608212860       17.9642351580      -16.3911246061  MEMB      101             0.0000000000
     14337       129  DOPC      HX             19.1535307992       18.6505183019      -16.7338798884  MEMB      101             0.0000000000
     14338       129  DOPC      HY             20.3666982285       18.4094352116      -15.4493901895  MEMB      101             0.0000000000
     14339       129  DOPC      O31            19.4246323089       16.6303098875      -16.2214790328  MEMB      101             0.0000000000
     14340       129  DOPC      C31            19.8339798971       15.9575551794      -15.1461611063  MEMB      101             0.0000000000
     14341       129  DOPC      O32            20.5655180537       16.3807367919      -14.2706214522  MEMB      101             0.0000000000
     14342       129  DOPC      C32            19.2703907358       14.5303788459      -15.1344810122  MEMB      101             0.0000000000
     14343       129  DOPC      H2X            18.8178862467       14.4374937609      -14.1224383421  MEMB      101             0.0000000000
     14344       129  DOPC      H2Y            18.4731861854       14.4314563549      -15.8972492400  MEMB      101             0.0000000000
     14345       129  DOPC      C23            25.1136786803       17.7463537777      -14.8012407301  MEMB      101             0.0000000000
     14346       129  DOPC      H3R            25.5676830666       18.5529321799      -15.4228604766  MEMB      101             0.0000000000
     14347       129  DOPC      H3S            25.9365880564       17.0672813031      -14.4835622073  MEMB      101             0.0000000000
     14348       129  DOPC      C24            24.4810428114       18.3879299162      -13.5533374498  MEMB      101             0.0000000000
     14349       129  DOPC      H4R            23.6098426947       19.0184348298      -13.8386113726  MEMB      101             0.0000000000
     14350       129  DOPC      H4S            25.2204329462       19.0778782533      -13.0882452441  MEMB      101             0.0000000000
     14351       129  DOPC      C25            24.0308329697       17.3830046205      -12.4903147789  MEMB      101             0.0000000000
     14352       129  DOPC      H5R            24.9375795287       16.9673661716      -12.0018010300  MEMB      101             0.0000000000
     14353       129  DOPC      H5S            23.4687456893       16.5386093363      -12.9478821627  MEMB      101             0.0000000000
     14354       129  DOPC      C26            23.1191865847       18.0249762586      -11.4319613013  MEMB      101             0.0000000000
     14355       129  DOPC      H6R            22.1119301392       18.1374955885      -11.8884714601  MEMB      101             0.0000000000
     14356       129  DOPC      H6S            23.4900180001       19.0372248791      -11.1673484830  MEMB      101             0.0000000000
     14357       129  DOPC      C27            23.0649215530       17.1793920593      -10.1545227847  MEMB      101             0.0000000000
     14358       129  DOPC      H7R            24.0466356983       17.2786971219       -9.6490785584  MEMB      101             0.0000000000
     14359       129  DOPC      H7S            22.9609549140       16.1201555054      -10.4671731015  MEMB      101             0.0000000000
     14360       129  DOPC      C28            21.9310877187       17.4914974807       -9.1614875306  MEMB      101             0.0000000000
     14361       129  DOPC      H8R            22.0681600278       18.5037473305       -8.7273639727  MEMB      101             0.0000000000
     14362       129  DOPC      H8S            22.0045590332       16.7679038873       -8.3160686602  MEMB      101             0.0000000000
     14363       129  DOPC      C29            20.6046883710       17.3579143593       -9.8638859731  MEMB      101             0.0000000000
     14364       129  DOPC      H9R            20.1337511767       18.3057661797      -10.1680561891  MEMB      101             0.0000000000
     14365       129  DOPC      C210           19.9801130656       16.1961825587      -10.1320537546  MEMB      101             0.0000000000
     14366       129  DOPC      H10R           19.0500787994       16.2190377365      -10.7168229460  MEMB      101             0.0000000000
     14367       129  DOPC      C211           20.4619088714       14.8124563215       -9.7883042121  MEMB      101             0.0000000000
     14368       129  DOPC      H11R           21.4744636687       14.8712361888       -9.3429991460  MEMB      101             0.0000000000
     14369       129  DOPC      H11S           20.5458062224       14.2215512953      -10.7257241800  MEMB      101             0.0000000000
     14370       129  DOPC      C212           19.6034867236       14.0022218516       -8.7966849881  MEMB      101             0.0000000000
     14371       129  DOPC      H12R           19.9091142122       12.9346764868       -8.8583953700  MEMB      101             0.0000000000
     14372       129  DOPC      H12S           18.5380917145       14.0382196833       -9.1030045329  MEMB      101             0.0000000000
     14373       129  DOPC      C213           19.7699778751       14.4780146486       -7.3441556434  MEMB      101             0.0000000000
     14374       129  DOPC      H13R           18.9589810147       14.0486064891       -6.7160653954  MEMB      101             0.0000000000
     14375       129  DOPC      H13S           19.6632419287       15.5857339705       -7.3181819003  MEMB      101             0.0000000000
     14376       129  DOPC      C214           21.1302159941       14.1179211051       -6.7274578534  MEMB      101             0.0000000000
     14377       129  DOPC      H14R           21.3198464905       14.7693518552       -5.8472544565  MEMB      101             0.0000000000
     14378       129  DOPC      H14S           21.9476754454       14.3290242089       -7.4500414000  MEMB      101             0.0000000000
     14379       129  DOPC      C215           21.2381936875       12.6509529740       -6.3056028798  MEMB      101             0.0000000000
     14380       129  DOPC      H15R           22.3215957816       12.4368660916       -6.1540574752  MEMB      101             0.0000000000
     14381       129  DOPC      H15S           20.8841216629       11.9906161561       -7.1271357140  MEMB      101             0.0000000000
     14382       129  DOPC      C216           20.4966545554       12.3148384275       -5.0023850971  MEMB      101             0.0000000000
     14383       129  DOPC      H16R           20.5324240793       11.2147203562       -4.8414000881  MEMB      101             0.0000000000
     14384       129  DOPC      H16S           19.4219849406       12.5901806169       -5.0813368274  MEMB      101             0.0000000000
     14385       129  DOPC      C217           21.1252673856       13.0069072633       -3.7863497246  MEMB      101             0.0000000000
     14386       129  DOPC      H17R           20.8766861633       14.0912067226       -3.8237018810  MEMB      101             0.0000000000
     14387       129  DOPC      H17S           22.2345941549       12.9208359417       -3.8550391376  MEMB      101             0.0000000000
     14388       129  DOPC      C218           20.6722813224       12.4289997412       -2.4459234825  MEMB      101             0.0000000000
     14389       129  DOPC      H18R           19.5686287179       12.3152458390       -2.4223194214  MEMB      101             0.0000000000
     14390       129  DOPC      H18S           20.9765039178       13.0984252808       -1.6124527255  MEMB      101             0.0000000000
     14391       129  DOPC      H18T           21.1247073635       11.4275556149       -2.2794469800  MEMB      101             0.0000000000
     14392       129  DOPC      C33            20.3324436991       13.4056602188      -15.2507040423  MEMB      101             0.0000000000
     14393       129  DOPC      H3X            21.3136950358       13.7855496145      -14.8966517536  MEMB      101             0.0000000000
     14394       129  DOPC      H3Y            20.4522902066       13.1150144084      -16.3171644358  MEMB      101             0.0000000000
     14395       129  DOPC      C34            19.9610106339       12.1586871423      -14.4181119290  MEMB      101             0.0000000000
     14396       129  DOPC      H4X            19.3515499279       11.4886414223      -15.0720367599  MEMB      101             0.0000000000
     14397       129  DOPC      H4Y            19.3104014072       12.4375820826      -13.5611792643  MEMB      101             0.0000000000
     14398       129  DOPC      C35            21.1484582630       11.3529221146      -13.8503531758  MEMB      101             0.0000000000
     14399       129  DOPC      H5X            21.9590760929       11.2676489829      -14.6011363297  MEMB      101             0.0000000000
     14400       129  DOPC      H5Y            20.7736198642       10.3169763326      -13.6600297289  MEMB      101             0.0000000000
     14401       129  DOPC      C36            21.7020328048       11.8581520278      -12.5034508237  MEMB      101             0.0000000000
     14402       129  DOPC      H6X            20.8684902171       12.0410558135      -11.7893725745  MEMB      101             0.0000000000
     14403       129  DOPC      H6Y            22.3261104959       11.0410105425      -12.0700041206  MEMB      101             0.0000000000
     14404       129  DOPC      C37            22.5906467601       13.1070307230      -12.6134415572  MEMB      101             0.0000000000
     14405       129  DOPC      H7X            23.3383436507       12.9304412461      -13.4165707587  MEMB      101             0.0000000000
     14406       129  DOPC      H7Y            21.9685429804       13.9851729160      -12.9003377637  MEMB      101             0.0000000000
     14407       129  DOPC      C38            23.3059307659       13.4498809967      -11.2941154106  MEMB      101             0.0000000000
     14408       129  DOPC      H8X            23.4077941650       12.5294873752      -10.6928494610  MEMB      101             0.0000000000
     14409       129  DOPC      H8Y            22.6199056155       14.0685057800      -10.7103349737  MEMB      101             0.0000000000
     14410       129  DOPC      C39            24.5959087881       14.2203454159      -11.4231855681  MEMB      101             0.0000000000
     14411       129  DOPC      H9X            24.8542216078       14.5152702562      -12.4509047263  MEMB      101             0.0000000000
     14412       129  DOPC      C310           25.4270761500       14.5509532964      -10.4105870426  MEMB      101             0.0000000000
     14413       129  DOPC      H10X           26.3366990308       15.1232564044      -10.6462243958  MEMB      101             0.0000000000
     14414       129  DOPC      C311           25.2536174686       14.2192502299       -8.9390821433  MEMB      101             0.0000000000
     14415       129  DOPC      H11X           26.1569215078       13.6746067721       -8.5814887746  MEMB      101             0.0000000000
     14416       129  DOPC      H11Y           24.3834432757       13.5435093511       -8.7564908164  MEMB      101             0.0000000000
     14417       129  DOPC      C312           25.0649888351       15.4674743666       -8.0690747013  MEMB      101             0.0000000000
     14418       129  DOPC      H12X           23.9871441292       15.7419644888       -8.0875460220  MEMB      101             0.0000000000
     14419       129  DOPC      H12Y           25.6507424742       16.3154014930       -8.4933525501  MEMB      101             0.0000000000
     14420       129  DOPC      C313           25.4863588488       15.3262448693       -6.6031982410  MEMB      101             0.0000000000
     14421       129  DOPC      H13X           24.9681310051       14.4655621238       -6.1273046805  MEMB      101             0.0000000000
     14422       129  DOPC      H13Y           26.5824154840       15.1338136754       -6.5615540210  MEMB      101             0.0000000000
     14423       129  DOPC      C314           25.1657444455       16.6231842654       -5.8411267771  MEMB      101             0.0000000000
     14424       129  DOPC      H14X           25.5539995242       17.4754354251       -6.4444205217  MEMB      101             0.0000000000
     14425       129  DOPC      H14Y           24.0626579062       16.7473570636       -5.7607588050  MEMB      101             0.0000000000
     14426       129  DOPC      C315           25.8116127721       16.6937461976       -4.4529745961  MEMB      101             0.0000000000
     14427       129  DOPC      H15X           25.9188432708       17.7582195913       -4.1463965514  MEMB      101             0.0000000000
     14428       129  DOPC      H15Y           26.8363061025       16.2679816396       -4.5188097281  MEMB      101             0.0000000000
     14429       129  DOPC      C316           25.0055954133       15.9471299244       -3.3864457369  MEMB      101             0.0000000000
     14430       129  DOPC      H16X           24.4121794927       15.1404260243       -3.8723116302  MEMB      101             0.0000000000
     14431       129  DOPC      H16Y           25.6949022973       15.4609247026       -2.6593170754  MEMB      101             0.0000000000
     14432       129  DOPC      C317           24.0691941833       16.8670242968       -2.5981905700  MEMB      101             0.0000000000
     14433       129  DOPC      H17X           23.4877276114       17.5191482610       -3.2860086727  MEMB      101             0.0000000000
     14434       129  DOPC      H17Y           23.3387696345       16.1972628258       -2.0954706868  MEMB      101             0.0000000000
     14435       129  DOPC      C318           24.7950984422       17.7271802978       -1.5565583207  MEMB      101             0.0000000000
     14436       129  DOPC      H18X           24.0699424041       18.2708308238       -0.9150255056  MEMB      101             0.0000000000
     14437       129  DOPC      H18Y           25.4313133463       17.0940321364       -0.9002570004  MEMB      101             0.0000000000
     14438       129  DOPC      H18Z           25.4430522455       18.4803276243       -2.0465309033  MEMB      101             0.0000000000
     14439       130  DOPC      N             -30.0093433376        0.5972515775      -20.8079889281  MEMB      102             0.0000000000
     14440       130  DOPC      C12           -30.4606307821       -0.8168694898      -20.4775818317  MEMB      102             0.0000000000
     14441       130  DOPC      H12A          -30.5512022230       -1.3804069742      -21.3944494730  MEMB      102             0.0000000000
     14442       130  DOPC      H12B          -31.4571749800       -0.7666611885      -20.0398545067  MEMB      102             0.0000000000
     14443       130  DOPC      C13           -28.6774608517        0.5786006784      -21.5057465968  MEMB      102             0.0000000000
     14444       130  DOPC      H13A          -27.9425393948        0.0910584960      -20.8650028952  MEMB      102             0.0000000000
     14445       130  DOPC      H13B          -28.7144529573        0.0181836310      -22.4390905298  MEMB      102             0.0000000000
     14446       130  DOPC      H13C          -28.3039866144        1.5764960009      -21.7281266962  MEMB      102             0.0000000000
     14447       130  DOPC      C14           -29.9017831091        1.3643545483      -19.5261182349  MEMB      102             0.0000000000
     14448       130  DOPC      H14A          -29.1542903865        0.8761274144      -18.8933695026  MEMB      102             0.0000000000
     14449       130  DOPC      H14B          -29.6472029974        2.3997111299      -19.6632689993  MEMB      102             0.0000000000
     14450       130  DOPC      H14C          -30.8209788995        1.2720796261      -18.9465620610  MEMB      102             0.0000000000
     14451       130  DOPC      C15           -31.0567075470        1.1927433780      -21.6794658802  MEMB      102             0.0000000000
     14452       130  DOPC      H15A          -31.9531291981        1.4152673361      -21.1118545003  MEMB      102             0.0000000000
     14453       130  DOPC      H15B          -31.3139672553        0.5449202825      -22.5089740119  MEMB      102             0.0000000000
     14454       130  DOPC      H15C          -30.6920351861        2.0870093731      -22.1797335245  MEMB      102             0.0000000000
     14455       130  DOPC      C11           -29.5964088394       -1.6226118395      -19.4956653520  MEMB      102             0.0000000000
     14456       130  DOPC      H11A          -30.0040393571       -2.6619846886      -19.4668541912  MEMB      102             0.0000000000
     14457       130  DOPC      H11B          -28.5479433070       -1.6797361556      -19.8853310628  MEMB      102             0.0000000000
     14458       130  DOPC      P             -28.7360042766       -1.7950037186      -17.1214917102  MEMB      102             0.0000000000
     14459       130  DOPC      O13           -27.3720069784       -1.6638848253      -17.6699632551  MEMB      102             0.0000000000
     14460       130  DOPC      O14           -29.3074679730       -3.1384933489      -16.8400152436  MEMB      102             0.0000000000
     14461       130  DOPC      O12           -29.6620968673       -1.0405276702      -18.1849622383  MEMB      102             0.0000000000
     14462       130  DOPC      O11           -28.8251098518       -0.8930279514      -15.8057804459  MEMB      102             0.0000000000
     14463       130  DOPC      C1            -28.6886382946        0.5246167427      -15.9756657689  MEMB      102             0.0000000000
     14464       130  DOPC      HA            -29.5051113698        0.9166377669      -16.6245893898  MEMB      102             0.0000000000
     14465       130  DOPC      HB            -27.7143279894        0.7502186777      -16.4647336231  MEMB      102             0.0000000000
     14466       130  DOPC      C2            -28.7629816435        1.3510110715      -14.6422887303  MEMB      102             0.0000000000
     14467       130  DOPC      HS            -28.4274265493        2.3817665345      -14.8940786538  MEMB      102             0.0000000000
     14468       130  DOPC      O21           -27.9433526068        0.8609411850      -13.5811877724  MEMB      102             0.0000000000
     14469       130  DOPC      C21           -26.6766635009        0.6064124357      -13.7608805208  MEMB      102             0.0000000000
     14470       130  DOPC      O22           -26.0269701187        0.7231635633      -14.7820880481  MEMB      102             0.0000000000
     14471       130  DOPC      C22           -26.0602328497        0.1955856612      -12.4128538331  MEMB      102             0.0000000000
     14472       130  DOPC      H2R           -25.1857590506        0.8548841519      -12.2368591669  MEMB      102             0.0000000000
     14473       130  DOPC      H2S           -25.6801815889       -0.8352948293      -12.5312304436  MEMB      102             0.0000000000
     14474       130  DOPC      C3            -30.2023848694        1.4882919481      -14.0356693867  MEMB      102             0.0000000000
     14475       130  DOPC      HX            -30.8375851043        2.1303055834      -14.6857938185  MEMB      102             0.0000000000
     14476       130  DOPC      HY            -30.0887593265        2.0454532307      -13.0760141103  MEMB      102             0.0000000000
     14477       130  DOPC      O31           -30.8066639113        0.2070797117      -13.7401014844  MEMB      102             0.0000000000
     14478       130  DOPC      C31           -31.4080508818       -0.3482047323      -14.8004364785  MEMB      102             0.0000000000
     14479       130  DOPC      O32           -31.7637188457        0.2615561593      -15.7950210674  MEMB      102             0.0000000000
     14480       130  DOPC      C32           -31.4839385822       -1.8652696002      -14.6375991203  MEMB      102             0.0000000000
     14481       130  DOPC      H2X           -31.3100021876       -2.2838680512      -15.6515831557  MEMB      102             0.0000000000
     14482       130  DOPC      H2Y           -30.6471546030       -2.2001835860      -13.9930185442  MEMB      102             0.0000000000
     14483       130  DOPC      C23           -27.0340190076        0.2738318721      -11.2104571013  MEMB      102             0.0000000000
     14484       130  DOPC      H3R           -26.6820621428       -0.3910168464      -10.3921659018  MEMB      102             0.0000000000
     14485       130  DOPC      H3S           -28.0546680890       -0.0785738513      -11.4841559444  MEMB      102             0.0000000000
     14486       130  DOPC      C24           -27.1301378527        1.7059339784      -10.6859617275  MEMB      102             0.0000000000
     14487       130  DOPC      H4R           -27.2942519304        2.3783211753      -11.5567480642  MEMB      102             0.0000000000
     14488       130  DOPC      H4S           -26.1634846745        2.0010645063      -10.2167174873  MEMB      102             0.0000000000
     14489       130  DOPC      C25           -28.2739019401        1.9071201177       -9.6892020321  MEMB      102             0.0000000000
     14490       130  DOPC      H5R           -29.1250044044        1.2323238214       -9.9387776254  MEMB      102             0.0000000000
     14491       130  DOPC      H5S           -28.6493832790        2.9532003035       -9.7605032171  MEMB      102             0.0000000000
     14492       130  DOPC      C26           -27.7671643623        1.6386257472       -8.2737380184  MEMB      102             0.0000000000
     14493       130  DOPC      H6R           -26.6792155541        1.8739094707       -8.2200670457  MEMB      102             0.0000000000
     14494       130  DOPC      H6S           -27.8733492509        0.5519195308       -8.0711000797  MEMB      102             0.0000000000
     14495       130  DOPC      C27           -28.4182576307        2.4858721113       -7.1769432803  MEMB      102             0.0000000000
     14496       130  DOPC      H7R           -29.5265363520        2.4269695508       -7.2372689927  MEMB      102             0.0000000000
     14497       130  DOPC      H7S           -28.1346319703        3.5479331017       -7.3452802748  MEMB      102             0.0000000000
     14498       130  DOPC      C28           -27.9180290638        2.0469870933       -5.7919274996  MEMB      102             0.0000000000
     14499       130  DOPC      H8R           -28.2425619257        2.7793325972       -5.0251670400  MEMB      102             0.0000000000
     14500       130  DOPC      H8S           -26.8030649874        2.0667610597       -5.7942098397  MEMB      102             0.0000000000
     14501       130  DOPC      C29           -28.4820906298        0.6800584508       -5.4897450985  MEMB      102             0.0000000000
     14502       130  DOPC      H9R           -29.5685179385        0.6595118281       -5.3373820136  MEMB      102             0.0000000000
     14503       130  DOPC      C210          -27.7934665908       -0.4636998943       -5.3471447898  MEMB      102             0.0000000000
     14504       130  DOPC      H10R          -28.3223876257       -1.3800335843       -5.0477703820  MEMB      102             0.0000000000
     14505       130  DOPC      C211          -26.3061006097       -0.5990941745       -5.4539526791  MEMB      102             0.0000000000
     14506       130  DOPC      H11R          -25.8764551313        0.0508144332       -6.2519830135  MEMB      102             0.0000000000
     14507       130  DOPC      H11S          -25.9997698363       -1.6443797120       -5.6837041724  MEMB      102             0.0000000000
     14508       130  DOPC      C212          -25.7032489631       -0.1750230394       -4.1092883264  MEMB      102             0.0000000000
     14509       130  DOPC      H12R          -25.8908694122        0.8978067044       -3.8852935222  MEMB      102             0.0000000000
     14510       130  DOPC      H12S          -24.6302136418       -0.2651939065       -4.2945892255  MEMB      102             0.0000000000
     14511       130  DOPC      C213          -26.0879925745       -1.0335442359       -2.8881077338  MEMB      102             0.0000000000
     14512       130  DOPC      H13R          -25.2118571292       -1.1047325064       -2.2057328922  MEMB      102             0.0000000000
     14513       130  DOPC      H13S          -26.3360481007       -2.0662005814       -3.2151094705  MEMB      102             0.0000000000
     14514       130  DOPC      C214          -27.2503391519       -0.4144857261       -2.0936019560  MEMB      102             0.0000000000
     14515       130  DOPC      H14R          -28.1287393449       -0.3460543105       -2.7659019094  MEMB      102             0.0000000000
     14516       130  DOPC      H14S          -26.9710290792        0.6239067525       -1.8102419651  MEMB      102             0.0000000000
     14517       130  DOPC      C215          -27.6441960446       -1.2173876539       -0.8493782069  MEMB      102             0.0000000000
     14518       130  DOPC      H15R          -26.8657943888       -1.0714989051       -0.0661639611  MEMB      102             0.0000000000
     14519       130  DOPC      H15S          -27.6587971947       -2.2989718418       -1.1125956733  MEMB      102             0.0000000000
     14520       130  DOPC      C216          -29.0191811261       -0.8659559999       -0.2478529034  MEMB      102             0.0000000000
     14521       130  DOPC      H16R          -28.9779513192        0.1202175535        0.2608914132  MEMB      102             0.0000000000
     14522       130  DOPC      H16S          -29.2064417128       -1.6240581686        0.5361853413  MEMB      102             0.0000000000
     14523       130  DOPC      C217          -30.2251514230       -0.8980726060       -1.2051469122  MEMB      102             0.0000000000
     14524       130  DOPC      H17R          -30.1405785377       -0.0645453918       -1.9227399034  MEMB      102             0.0000000000
     14525       130  DOPC      H17S          -31.1518957975       -0.7106272058       -0.6160203876  MEMB      102             0.0000000000
     14526       130  DOPC      C218          -30.3835063243       -2.1887568267       -2.0121917522  MEMB      102             0.0000000000
     14527       130  DOPC      H18R          -31.4446397297       -2.3347580436       -2.3111959370  MEMB      102             0.0000000000
     14528       130  DOPC      H18S          -30.0528425845       -3.0595023836       -1.4086203356  MEMB      102             0.0000000000
     14529       130  DOPC      H18T          -29.7586505466       -2.1356119027       -2.9315431045  MEMB      102             0.0000000000
     14530       130  DOPC      C33           -32.8538988750       -2.3804394215      -14.1641244430  MEMB      102             0.0000000000
     14531       130  DOPC      H3X           -32.8443659391       -3.4921844787      -14.2217686006  MEMB      102             0.0000000000
     14532       130  DOPC      H3Y           -33.6488113089       -2.0157100181      -14.8534944988  MEMB      102             0.0000000000
     14533       130  DOPC      C34           -33.1843071915       -1.9699651773      -12.7324796822  MEMB      102             0.0000000000
     14534       130  DOPC      H4X           -34.1781925065       -2.3880999859      -12.4655425302  MEMB      102             0.0000000000
     14535       130  DOPC      H4Y           -33.2567031367       -0.8592115236      -12.6906409902  MEMB      102             0.0000000000
     14536       130  DOPC      C35           -32.1715436495       -2.4659880945      -11.6937633479  MEMB      102             0.0000000000
     14537       130  DOPC      H5X           -31.2217905878       -1.8926558907      -11.7786747504  MEMB      102             0.0000000000
     14538       130  DOPC      H5Y           -31.9457049121       -3.5372684000      -11.9000830468  MEMB      102             0.0000000000
     14539       130  DOPC      C36           -32.7185563590       -2.3251812803      -10.2745501142  MEMB      102             0.0000000000
     14540       130  DOPC      H6X           -33.6966685049       -2.8476366046      -10.2343551371  MEMB      102             0.0000000000
     14541       130  DOPC      H6Y           -32.0415245247       -2.8094479548       -9.5386622506  MEMB      102             0.0000000000
     14542       130  DOPC      C37           -33.0006704328       -0.8779470242       -9.8665086316  MEMB      102             0.0000000000
     14543       130  DOPC      H7X           -32.0503023520       -0.3035832534       -9.8063762258  MEMB      102             0.0000000000
     14544       130  DOPC      H7Y           -33.6337703854       -0.4109887206      -10.6552631893  MEMB      102             0.0000000000
     14545       130  DOPC      C38           -33.7570205357       -0.8243884481       -8.5328144470  MEMB      102             0.0000000000
     14546       130  DOPC      H8X           -33.0497455384       -1.0669531036       -7.7091888860  MEMB      102             0.0000000000
     14547       130  DOPC      H8Y           -34.5405787556       -1.6152480809       -8.5252417937  MEMB      102             0.0000000000
     14548       130  DOPC      C39           -34.4247924225        0.5098987557       -8.3642846727  MEMB      102             0.0000000000
     14549       130  DOPC      H9X           -35.2401428057        0.7067778989       -9.0750218764  MEMB      102             0.0000000000
     14550       130  DOPC      C310          -34.0774970800        1.4636517228       -7.4928776723  MEMB      102             0.0000000000
     14551       130  DOPC      H10X          -34.6658772734        2.3944443570       -7.4678262014  MEMB      102             0.0000000000
     14552       130  DOPC      C311          -32.9414702127        1.3816173455       -6.5109427487  MEMB      102             0.0000000000
     14553       130  DOPC      H11X          -32.6445122513        2.4248167210       -6.2874507266  MEMB      102             0.0000000000
     14554       130  DOPC      H11Y          -32.0529591895        0.8869234361       -6.9667081001  MEMB      102             0.0000000000
     14555       130  DOPC      C312          -33.2910915069        0.6331945816       -5.2081393316  MEMB      102             0.0000000000
     14556       130  DOPC      H12X          -33.4099175717       -0.4474924427       -5.4389862669  MEMB      102             0.0000000000
     14557       130  DOPC      H12Y          -34.2570383574        1.0172077157       -4.8069716069  MEMB      102             0.0000000000
     14558       130  DOPC      C313          -32.2318798017        0.7312414508       -4.1005505103  MEMB      102             0.0000000000
     14559       130  DOPC      H13X          -32.6594897353        0.3219580181       -3.1562395453  MEMB      102             0.0000000000
     14560       130  DOPC      H13Y          -31.3691242249        0.0818041919       -4.3703439730  MEMB      102             0.0000000000
     14561       130  DOPC      C314          -31.7431368353        2.1651256819       -3.8749342377  MEMB      102             0.0000000000
     14562       130  DOPC      H14X          -31.2769665023        2.5379287749       -4.8142236460  MEMB      102             0.0000000000
     14563       130  DOPC      H14Y          -32.6020864001        2.8244178022       -3.6231360621  MEMB      102             0.0000000000
     14564       130  DOPC      C315          -30.6588953721        2.2812779507       -2.8133019247  MEMB      102             0.0000000000
     14565       130  DOPC      H15X          -29.8622369776        1.5402895435       -3.0539534508  MEMB      102             0.0000000000
     14566       130  DOPC      H15Y          -31.0772606070        2.0593658818       -1.8062581002  MEMB      102             0.0000000000
     14567       130  DOPC      C316          -29.9848599714        3.6467259420       -2.8272141586  MEMB      102             0.0000000000
     14568       130  DOPC      H16X          -29.7349856514        3.9242726012       -3.8778905422  MEMB      102             0.0000000000
     14569       130  DOPC      H16Y          -30.6638417408        4.4244952061       -2.4380990790  MEMB      102             0.0000000000
     14570       130  DOPC      C317          -28.6965292858        3.6598690842       -2.0152290835  MEMB      102             0.0000000000
     14571       130  DOPC      H17X          -27.9061065646        3.2785977840       -2.6914658941  MEMB      102             0.0000000000
     14572       130  DOPC      H17Y          -28.4751479307        4.7164475702       -1.7549585661  MEMB      102             0.0000000000
     14573       130  DOPC      C318          -28.6693333590        2.8126260953       -0.7456888090  MEMB      102             0.0000000000
     14574       130  DOPC      H18X          -27.7654594855        3.0719770322       -0.1591435791  MEMB      102             0.0000000000
     14575       130  DOPC      H18Y          -29.5708509040        2.9868433120       -0.1225472804  MEMB      102             0.0000000000
     14576       130  DOPC      H18Z          -28.6125004624        1.7383145986       -1.0026457316  MEMB      102             0.0000000000
     14577       131  DOPC      N              -2.2442298789      -29.8892970109      -19.1837430515  MEMB      103             0.0000000000
     14578       131  DOPC      C12            -2.8384225197      -29.3106176297      -20.4661221973  MEMB      103             0.0000000000
     14579       131  DOPC      H12A           -3.2482241360      -30.1042780661      -21.0837860746  MEMB      103             0.0000000000
     14580       131  DOPC      H12B           -2.0404126318      -28.8454615586      -21.0438014705  MEMB      103             0.0000000000
     14581       131  DOPC      C13            -3.3503734081      -30.1569936009      -18.2110412208  MEMB      103             0.0000000000
     14582       131  DOPC      H13A           -4.0866230472      -30.8295479499      -18.6249145136  MEMB      103             0.0000000000
     14583       131  DOPC      H13B           -2.9770271322      -30.5305053973      -17.2730615316  MEMB      103             0.0000000000
     14584       131  DOPC      H13C           -3.8780111443      -29.2112183976      -18.0252552214  MEMB      103             0.0000000000
     14585       131  DOPC      C14            -1.2904410867      -28.8896283065      -18.6024380070  MEMB      103             0.0000000000
     14586       131  DOPC      H14A           -0.4641323416      -28.7062998668      -19.2786905178  MEMB      103             0.0000000000
     14587       131  DOPC      H14B           -1.8112687633      -27.9334253338      -18.4914931248  MEMB      103             0.0000000000
     14588       131  DOPC      H14C           -0.9246411352      -29.1467889091      -17.6253856344  MEMB      103             0.0000000000
     14589       131  DOPC      C15            -1.5092995229      -31.1254672368      -19.5561349457  MEMB      103             0.0000000000
     14590       131  DOPC      H15A           -0.8019857871      -31.4182506115      -18.7977822299  MEMB      103             0.0000000000
     14591       131  DOPC      H15B           -0.9282591534      -30.9542524950      -20.4724540615  MEMB      103             0.0000000000
     14592       131  DOPC      H15C           -2.2082858857      -31.9083854911      -19.8178931379  MEMB      103             0.0000000000
     14593       131  DOPC      C11            -3.9152392870      -28.2311136678      -20.2838907138  MEMB      103             0.0000000000
     14594       131  DOPC      H11A           -4.2588036509      -27.9350550459      -21.2902403206  MEMB      103             0.0000000000
     14595       131  DOPC      H11B           -4.8024036061      -28.6522871485      -19.7528167851  MEMB      103             0.0000000000
     14596       131  DOPC      P              -4.1996463417      -26.2153007687      -18.6737934128  MEMB      103             0.0000000000
     14597       131  DOPC      O13            -5.1216546425      -27.0866541325      -17.9208204999  MEMB      103             0.0000000000
     14598       131  DOPC      O14            -4.8299839842      -25.1256434857      -19.4561048023  MEMB      103             0.0000000000
     14599       131  DOPC      O12            -3.3359029831      -27.1039708674      -19.6391889337  MEMB      103             0.0000000000
     14600       131  DOPC      O11            -3.0647600671      -25.5996281938      -17.7462942427  MEMB      103             0.0000000000
     14601       131  DOPC      C1             -1.8219825680      -25.2561031880      -18.3921674811  MEMB      103             0.0000000000
     14602       131  DOPC      HA             -1.9623679482      -24.8957366543      -19.4395596949  MEMB      103             0.0000000000
     14603       131  DOPC      HB             -1.1882249136      -26.1650853885      -18.4375047377  MEMB      103             0.0000000000
     14604       131  DOPC      C2             -1.0035350695      -24.1674811912      -17.6269517778  MEMB      103             0.0000000000
     14605       131  DOPC      HS              0.0467579723      -24.1996967862      -17.9924894072  MEMB      103             0.0000000000
     14606       131  DOPC      O21            -1.0382297419      -24.3959814614      -16.2122015109  MEMB      103             0.0000000000
     14607       131  DOPC      C21            -0.4378700788      -25.4908051602      -15.8172949910  MEMB      103             0.0000000000
     14608       131  DOPC      O22             0.2773417221      -26.2027666096      -16.5119075796  MEMB      103             0.0000000000
     14609       131  DOPC      C22            -0.6642645075      -25.7079734195      -14.3227749778  MEMB      103             0.0000000000
     14610       131  DOPC      H2R            -1.4774224051      -26.4529257088      -14.2065130195  MEMB      103             0.0000000000
     14611       131  DOPC      H2S            -0.9959443789      -24.7514853128      -13.8666790058  MEMB      103             0.0000000000
     14612       131  DOPC      C3             -1.5206143228      -22.7353549380      -17.9085823411  MEMB      103             0.0000000000
     14613       131  DOPC      HX             -1.3055743532      -22.4930520306      -18.9728077470  MEMB      103             0.0000000000
     14614       131  DOPC      HY             -0.9632877708      -21.9903086031      -17.2901322201  MEMB      103             0.0000000000
     14615       131  DOPC      O31            -2.9386555300      -22.6699170670      -17.7029546516  MEMB      103             0.0000000000
     14616       131  DOPC      C31            -3.3069373714      -22.5403085489      -16.4354419604  MEMB      103             0.0000000000
     14617       131  DOPC      O32            -2.5956865251      -22.2152647588      -15.5048089384  MEMB      103             0.0000000000
     14618       131  DOPC      C32            -4.8180806353      -22.7396571692      -16.3604491948  MEMB      103             0.0000000000
     14619       131  DOPC      H2X            -5.2935153358      -21.7400419813      -16.4304474954  MEMB      103             0.0000000000
     14620       131  DOPC      H2Y            -5.1561093199      -23.3762532832      -17.2042030274  MEMB      103             0.0000000000
     14621       131  DOPC      C23             0.6379065419      -26.2126127734      -13.6489751666  MEMB      103             0.0000000000
     14622       131  DOPC      H3R             1.4369466164      -25.4470364643      -13.7827177074  MEMB      103             0.0000000000
     14623       131  DOPC      H3S             0.9670053751      -27.1473332391      -14.1553759107  MEMB      103             0.0000000000
     14624       131  DOPC      C24             0.4961061051      -26.4929987202      -12.1472390575  MEMB      103             0.0000000000
     14625       131  DOPC      H4R             1.4160710907      -27.0105417546      -11.7898628257  MEMB      103             0.0000000000
     14626       131  DOPC      H4S            -0.3652158650      -27.1758919735      -11.9735782261  MEMB      103             0.0000000000
     14627       131  DOPC      C25             0.3180419479      -25.2036264669      -11.3407974724  MEMB      103             0.0000000000
     14628       131  DOPC      H5R            -0.5604268096      -24.6468236756      -11.7380442300  MEMB      103             0.0000000000
     14629       131  DOPC      H5S             1.2137505167      -24.5561129938      -11.4739770817  MEMB      103             0.0000000000
     14630       131  DOPC      C26             0.0797686070      -25.4384578935       -9.8487887598  MEMB      103             0.0000000000
     14631       131  DOPC      H6R             0.9386839323      -25.9873154011       -9.4043964803  MEMB      103             0.0000000000
     14632       131  DOPC      H6S            -0.8286000819      -26.0707577450       -9.7357364309  MEMB      103             0.0000000000
     14633       131  DOPC      C27            -0.1335228662      -24.1028495299       -9.1221391765  MEMB      103             0.0000000000
     14634       131  DOPC      H7R            -0.8331103352      -23.5010717281       -9.7415530172  MEMB      103             0.0000000000
     14635       131  DOPC      H7S             0.8268474642      -23.5438420861       -9.0754644584  MEMB      103             0.0000000000
     14636       131  DOPC      C28            -0.7492280537      -24.2216344254       -7.7193496645  MEMB      103             0.0000000000
     14637       131  DOPC      H8R            -1.7326657335      -24.7282325354       -7.8104611162  MEMB      103             0.0000000000
     14638       131  DOPC      H8S            -0.9597424444      -23.1915926995       -7.3568175694  MEMB      103             0.0000000000
     14639       131  DOPC      C29             0.1382169041      -24.9891524890       -6.7764542254  MEMB      103             0.0000000000
     14640       131  DOPC      H9R             0.3493714330      -26.0196484343       -7.0993364545  MEMB      103             0.0000000000
     14641       131  DOPC      C210            0.6329295229      -24.5750224289       -5.5956612801  MEMB      103             0.0000000000
     14642       131  DOPC      H10R            1.2508547641      -25.2783649119       -5.0180741529  MEMB      103             0.0000000000
     14643       131  DOPC      C211            0.4232784967      -23.2439283358       -4.9148894046  MEMB      103             0.0000000000
     14644       131  DOPC      H11R            0.8763269044      -22.4200127790       -5.5132882415  MEMB      103             0.0000000000
     14645       131  DOPC      H11S            0.9622179203      -23.2544344176       -3.9410594800  MEMB      103             0.0000000000
     14646       131  DOPC      C212           -1.0429308023      -22.8749737642       -4.5972391069  MEMB      103             0.0000000000
     14647       131  DOPC      H12R           -1.4455788454      -22.3457279070       -5.4807506321  MEMB      103             0.0000000000
     14648       131  DOPC      H12S           -1.0487334595      -22.1418080672       -3.7606972841  MEMB      103             0.0000000000
     14649       131  DOPC      C213           -1.9519694163      -24.0790069561       -4.2752750913  MEMB      103             0.0000000000
     14650       131  DOPC      H13R           -1.3379260806      -24.8689851741       -3.7880095852  MEMB      103             0.0000000000
     14651       131  DOPC      H13S           -2.3414897597      -24.5051133244       -5.2264355222  MEMB      103             0.0000000000
     14652       131  DOPC      C214           -3.1176611671      -23.7719995010       -3.3292381382  MEMB      103             0.0000000000
     14653       131  DOPC      H14R           -3.2112003988      -22.6784673802       -3.1512098607  MEMB      103             0.0000000000
     14654       131  DOPC      H14S           -2.9006580920      -24.2524262374       -2.3605371991  MEMB      103             0.0000000000
     14655       131  DOPC      C215           -4.4659643913      -24.3690440381       -3.7169186146  MEMB      103             0.0000000000
     14656       131  DOPC      H15R           -4.3829304388      -25.4606003695       -3.9038173048  MEMB      103             0.0000000000
     14657       131  DOPC      H15S           -4.7848858271      -23.8849680735       -4.6593394461  MEMB      103             0.0000000000
     14658       131  DOPC      C216           -5.4937450504      -24.1146586721       -2.6109920109  MEMB      103             0.0000000000
     14659       131  DOPC      H16R           -6.4395473271      -23.7672602121       -3.0673144978  MEMB      103             0.0000000000
     14660       131  DOPC      H16S           -5.1376352478      -23.2990136877       -1.9445107302  MEMB      103             0.0000000000
     14661       131  DOPC      C217           -5.8667040491      -25.3301826678       -1.7674696373  MEMB      103             0.0000000000
     14662       131  DOPC      H17R           -4.9923833469      -25.6945497360       -1.1910750940  MEMB      103             0.0000000000
     14663       131  DOPC      H17S           -6.2012659364      -26.1542239536       -2.4384399424  MEMB      103             0.0000000000
     14664       131  DOPC      C218           -6.9951114196      -24.9448497886       -0.8184157551  MEMB      103             0.0000000000
     14665       131  DOPC      H18R           -7.8625105510      -24.6129147601       -1.4189785866  MEMB      103             0.0000000000
     14666       131  DOPC      H18S           -6.7021819926      -24.0853802608       -0.1835916986  MEMB      103             0.0000000000
     14667       131  DOPC      H18T           -7.3019007589      -25.7877168822       -0.1678919857  MEMB      103             0.0000000000
     14668       131  DOPC      C33            -5.2235593489      -23.3746684379      -15.0298096144  MEMB      103             0.0000000000
     14669       131  DOPC      H3X            -4.5891602409      -22.9938455158      -14.1979846926  MEMB      103             0.0000000000
     14670       131  DOPC      H3Y            -5.0714651594      -24.4778541558      -15.0930544000  MEMB      103             0.0000000000
     14671       131  DOPC      C34            -6.6761827104      -23.0555791377      -14.6818312643  MEMB      103             0.0000000000
     14672       131  DOPC      H4X            -7.2927184978      -23.2843717945      -15.5787097670  MEMB      103             0.0000000000
     14673       131  DOPC      H4Y            -6.7947210602      -21.9733361756      -14.4481685406  MEMB      103             0.0000000000
     14674       131  DOPC      C35            -7.1260322485      -23.9165860530      -13.5083095661  MEMB      103             0.0000000000
     14675       131  DOPC      H5X            -6.7588006246      -24.9486326249      -13.7097930094  MEMB      103             0.0000000000
     14676       131  DOPC      H5Y            -8.2300459273      -23.9510269377      -13.3980713458  MEMB      103             0.0000000000
     14677       131  DOPC      C36            -6.5448106453      -23.5119362145      -12.1633363952  MEMB      103             0.0000000000
     14678       131  DOPC      H6X            -5.4361541957      -23.5090178985      -12.2472951082  MEMB      103             0.0000000000
     14679       131  DOPC      H6Y            -6.9001637502      -22.5030961881      -11.8704722488  MEMB      103             0.0000000000
     14680       131  DOPC      C37            -6.9367558771      -24.5472990529      -11.1195653157  MEMB      103             0.0000000000
     14681       131  DOPC      H7X            -8.0260501786      -24.4591573212      -10.9015122466  MEMB      103             0.0000000000
     14682       131  DOPC      H7Y            -6.7608950428      -25.5364468126      -11.6104312074  MEMB      103             0.0000000000
     14683       131  DOPC      C38            -6.1222724586      -24.4640389799       -9.8283609444  MEMB      103             0.0000000000
     14684       131  DOPC      H8X            -6.4826615041      -23.6050371585       -9.2212188937  MEMB      103             0.0000000000
     14685       131  DOPC      H8Y            -5.0448568180      -24.3041084984      -10.0590717273  MEMB      103             0.0000000000
     14686       131  DOPC      C39            -6.3698718036      -25.7741648741       -9.1410084656  MEMB      103             0.0000000000
     14687       131  DOPC      H9X            -7.3727251680      -26.1903186314       -9.3262671653  MEMB      103             0.0000000000
     14688       131  DOPC      C310           -5.5276533427      -26.4668398245       -8.3690893962  MEMB      103             0.0000000000
     14689       131  DOPC      H10X           -5.8560933704      -27.4500885155       -8.0245433698  MEMB      103             0.0000000000
     14690       131  DOPC      C311           -4.1196454393      -26.1331526008       -7.9730497921  MEMB      103             0.0000000000
     14691       131  DOPC      H11X           -4.0565945801      -26.0698057066       -6.8641192173  MEMB      103             0.0000000000
     14692       131  DOPC      H11Y           -3.8130848418      -25.1395936167       -8.3646547208  MEMB      103             0.0000000000
     14693       131  DOPC      C312           -3.1214336672      -27.2020260382       -8.4621612070  MEMB      103             0.0000000000
     14694       131  DOPC      H12X           -2.1124791053      -26.9515219026       -8.0659981846  MEMB      103             0.0000000000
     14695       131  DOPC      H12Y           -3.0657697094      -27.1606349539       -9.5745169165  MEMB      103             0.0000000000
     14696       131  DOPC      C313           -3.4458694160      -28.6506706236       -8.0484848330  MEMB      103             0.0000000000
     14697       131  DOPC      H13X           -4.3722193260      -28.9745163820       -8.5724811815  MEMB      103             0.0000000000
     14698       131  DOPC      H13Y           -2.6301592270      -29.3185752584       -8.4019843858  MEMB      103             0.0000000000
     14699       131  DOPC      C314           -3.6342440961      -28.8692719545       -6.5393946084  MEMB      103             0.0000000000
     14700       131  DOPC      H14X           -4.4529514850      -28.2381634423       -6.1764239483  MEMB      103             0.0000000000
     14701       131  DOPC      H14Y           -3.9189360200      -29.9324194372       -6.3655284023  MEMB      103             0.0000000000
     14702       131  DOPC      C315           -2.4406939696      -28.4772805086       -5.6642372235  MEMB      103             0.0000000000
     14703       131  DOPC      H15X           -2.3474646774      -27.3677846305       -5.6271032535  MEMB      103             0.0000000000
     14704       131  DOPC      H15Y           -1.5267802727      -28.8849927918       -6.1475143812  MEMB      103             0.0000000000
     14705       131  DOPC      C316           -2.5507087084      -29.0448301131       -4.2379355461  MEMB      103             0.0000000000
     14706       131  DOPC      H16X           -2.9217009042      -30.0938549291       -4.3017152158  MEMB      103             0.0000000000
     14707       131  DOPC      H16Y           -1.5327312505      -29.0650464130       -3.7913325886  MEMB      103             0.0000000000
     14708       131  DOPC      C317           -3.4551368999      -28.2426424055       -3.2898309741  MEMB      103             0.0000000000
     14709       131  DOPC      H17X           -3.0494186064      -27.2134539308       -3.1694749081  MEMB      103             0.0000000000
     14710       131  DOPC      H17Y           -4.4461797889      -28.1241495510       -3.7606537522  MEMB      103             0.0000000000
     14711       131  DOPC      C318           -3.6134607181      -28.8962882681       -1.9098620233  MEMB      103             0.0000000000
     14712       131  DOPC      H18X           -3.9869324572      -29.9382175047       -1.9975187638  MEMB      103             0.0000000000
     14713       131  DOPC      H18Y           -2.6315848905      -28.9217250460       -1.3890051022  MEMB      103             0.0000000000
     14714       131  DOPC      H18Z           -4.3228811106      -28.3228915081       -1.2757908480  MEMB      103             0.0000000000
     14715       132  DOPC      N             -25.6184746676       16.0820951479      -20.2017500986  MEMB      104             0.0000000000
     14716       132  DOPC      C12           -25.5736235110       14.6919267696      -19.5721134139  MEMB      104             0.0000000000
     14717       132  DOPC      H12A          -25.3584699703       13.9772427744      -20.3586611866  MEMB      104             0.0000000000
     14718       132  DOPC      H12B          -26.5571557928       14.4401612441      -19.1998764224  MEMB      104             0.0000000000
     14719       132  DOPC      C13           -25.9988044410       17.1256272514      -19.1920896774  MEMB      104             0.0000000000
     14720       132  DOPC      H13A          -27.0176259009       16.9475754777      -18.8456943576  MEMB      104             0.0000000000
     14721       132  DOPC      H13B          -25.3175597581       17.1116973934      -18.3577074474  MEMB      104             0.0000000000
     14722       132  DOPC      H13C          -26.0618499523       18.1182162920      -19.6350397827  MEMB      104             0.0000000000
     14723       132  DOPC      C14           -26.6500581630       16.1369053477      -21.2806164451  MEMB      104             0.0000000000
     14724       132  DOPC      H14A          -27.6477525738       16.0595832084      -20.8378402410  MEMB      104             0.0000000000
     14725       132  DOPC      H14B          -26.6139144928       17.1019671332      -21.7800011274  MEMB      104             0.0000000000
     14726       132  DOPC      H14C          -26.5308681642       15.3587561365      -22.0209099201  MEMB      104             0.0000000000
     14727       132  DOPC      C15           -24.2798865803       16.4192219043      -20.7789622410  MEMB      104             0.0000000000
     14728       132  DOPC      H15A          -23.5563167744       16.4036923880      -19.9615541232  MEMB      104             0.0000000000
     14729       132  DOPC      H15B          -24.2953446625       17.3656653040      -21.3060754984  MEMB      104             0.0000000000
     14730       132  DOPC      H15C          -23.9572828608       15.6464833244      -21.4788603043  MEMB      104             0.0000000000
     14731       132  DOPC      C11           -24.5330458375       14.4022640431      -18.4501564708  MEMB      104             0.0000000000
     14732       132  DOPC      H11A          -24.8012550465       14.9646704958      -17.5310500609  MEMB      104             0.0000000000
     14733       132  DOPC      H11B          -24.6039636257       13.3122578072      -18.2035855631  MEMB      104             0.0000000000
     14734       132  DOPC      P             -21.9352376491       14.3467966218      -18.0618039933  MEMB      104             0.0000000000
     14735       132  DOPC      O13           -20.8106405892       15.0694927671      -18.6938774681  MEMB      104             0.0000000000
     14736       132  DOPC      O14           -21.8392135444       12.8682409276      -18.0124208216  MEMB      104             0.0000000000
     14737       132  DOPC      O12           -23.2183119848       14.7386669955      -18.8830854525  MEMB      104             0.0000000000
     14738       132  DOPC      O11           -22.2813903942       14.9938755017      -16.6494435252  MEMB      104             0.0000000000
     14739       132  DOPC      C1            -21.8124321427       16.3485260686      -16.4702008212  MEMB      104             0.0000000000
     14740       132  DOPC      HA            -21.9937752495       16.9918342454      -17.3656725540  MEMB      104             0.0000000000
     14741       132  DOPC      HB            -20.7139048765       16.3475445856      -16.2824819668  MEMB      104             0.0000000000
     14742       132  DOPC      C2            -22.5405898489       17.0520782904      -15.2968480125  MEMB      104             0.0000000000
     14743       132  DOPC      HS            -22.0213997363       18.0093470247      -15.0585264325  MEMB      104             0.0000000000
     14744       132  DOPC      O21           -22.6050212450       16.2382263639      -14.1281773749  MEMB      104             0.0000000000
     14745       132  DOPC      C21           -21.5093514160       15.6819505076      -13.6807953942  MEMB      104             0.0000000000
     14746       132  DOPC      O22           -20.3568845883       15.9942853216      -13.9237287821  MEMB      104             0.0000000000
     14747       132  DOPC      C22           -21.9519433263       14.6612253489      -12.6278727998  MEMB      104             0.0000000000
     14748       132  DOPC      H2R           -21.4293509229       13.7000857054      -12.7895052191  MEMB      104             0.0000000000
     14749       132  DOPC      H2S           -23.0401040887       14.4764536502      -12.7672517993  MEMB      104             0.0000000000
     14750       132  DOPC      C3            -24.0019856915       17.3849777491      -15.7017001088  MEMB      104             0.0000000000
     14751       132  DOPC      HX            -24.3862517587       16.5135254086      -16.2723171558  MEMB      104             0.0000000000
     14752       132  DOPC      HY            -24.0051197691       18.2598695008      -16.3823638485  MEMB      104             0.0000000000
     14753       132  DOPC      O31           -24.8115887592       17.7059012504      -14.5598628840  MEMB      104             0.0000000000
     14754       132  DOPC      C31           -25.6809282899       16.7975128743      -14.1498999937  MEMB      104             0.0000000000
     14755       132  DOPC      O32           -25.9342187161       15.7481726664      -14.7023632441  MEMB      104             0.0000000000
     14756       132  DOPC      C32           -26.2401398034       17.2652678748      -12.8206566439  MEMB      104             0.0000000000
     14757       132  DOPC      H2X           -25.4063292274       17.0954378731      -12.1218101358  MEMB      104             0.0000000000
     14758       132  DOPC      H2Y           -26.3745952763       18.3551414891      -12.8374783409  MEMB      104             0.0000000000
     14759       132  DOPC      C23           -21.7203863893       15.2229095323      -11.2096037460  MEMB      104             0.0000000000
     14760       132  DOPC      H3R           -22.4751217396       14.7897032477      -10.5140729542  MEMB      104             0.0000000000
     14761       132  DOPC      H3S           -21.8770249614       16.3273008311      -11.2178587285  MEMB      104             0.0000000000
     14762       132  DOPC      C24           -20.3211963701       14.9185741530      -10.6596222419  MEMB      104             0.0000000000
     14763       132  DOPC      H4R           -19.5705014289       15.0101730931      -11.4790249859  MEMB      104             0.0000000000
     14764       132  DOPC      H4S           -20.2992284114       13.8652990989      -10.2999183462  MEMB      104             0.0000000000
     14765       132  DOPC      C25           -19.9107061573       15.8693105284       -9.5216303081  MEMB      104             0.0000000000
     14766       132  DOPC      H5R           -19.7413526462       16.8802521177       -9.9477026875  MEMB      104             0.0000000000
     14767       132  DOPC      H5S           -18.9451145927       15.5273630696       -9.0880163421  MEMB      104             0.0000000000
     14768       132  DOPC      C26           -20.9673717324       15.9766842285       -8.4172636101  MEMB      104             0.0000000000
     14769       132  DOPC      H6R           -21.1437194944       14.9520131408       -8.0141384038  MEMB      104             0.0000000000
     14770       132  DOPC      H6S           -21.9295342451       16.3436317075       -8.8384559145  MEMB      104             0.0000000000
     14771       132  DOPC      C27           -20.5821271192       16.8836592932       -7.2385118258  MEMB      104             0.0000000000
     14772       132  DOPC      H7R           -19.6129215542       16.5599489659       -6.8045118796  MEMB      104             0.0000000000
     14773       132  DOPC      H7S           -21.3659452210       16.6879499233       -6.4715434883  MEMB      104             0.0000000000
     14774       132  DOPC      C28           -20.5309559677       18.3978921367       -7.5376194365  MEMB      104             0.0000000000
     14775       132  DOPC      H8R           -21.3240651454       18.6762183154       -8.2664416896  MEMB      104             0.0000000000
     14776       132  DOPC      H8S           -19.5602941793       18.6495656725       -8.0140452874  MEMB      104             0.0000000000
     14777       132  DOPC      C29           -20.6872015147       19.1586055257       -6.2445406252  MEMB      104             0.0000000000
     14778       132  DOPC      H9R           -19.7770803846       19.6445605900       -5.8665810058  MEMB      104             0.0000000000
     14779       132  DOPC      C210          -21.8410284435       19.2970830190       -5.5686622498  MEMB      104             0.0000000000
     14780       132  DOPC      H10R          -21.8393711128       19.7769217799       -4.5766415390  MEMB      104             0.0000000000
     14781       132  DOPC      C211          -23.1588711435       18.7179341974       -6.0015526497  MEMB      104             0.0000000000
     14782       132  DOPC      H11R          -23.0825628608       18.2035865920       -6.9882930780  MEMB      104             0.0000000000
     14783       132  DOPC      H11S          -23.9012448850       19.5254886979       -6.1639949205  MEMB      104             0.0000000000
     14784       132  DOPC      C212          -23.7652732854       17.6778176371       -5.0506775617  MEMB      104             0.0000000000
     14785       132  DOPC      H12R          -23.2813084512       16.6905961049       -5.1511823523  MEMB      104             0.0000000000
     14786       132  DOPC      H12S          -24.7871621699       17.5348788472       -5.4409583087  MEMB      104             0.0000000000
     14787       132  DOPC      C213          -23.9536171644       18.0386552148       -3.5737054260  MEMB      104             0.0000000000
     14788       132  DOPC      H13R          -23.9500023012       19.1419906884       -3.4284982120  MEMB      104             0.0000000000
     14789       132  DOPC      H13S          -23.1130468778       17.6163401771       -2.9760024944  MEMB      104             0.0000000000
     14790       132  DOPC      C214          -25.3096329264       17.4849360394       -3.0970311284  MEMB      104             0.0000000000
     14791       132  DOPC      H14R          -26.1006973869       18.0429310902       -3.6313980210  MEMB      104             0.0000000000
     14792       132  DOPC      H14S          -25.4854235276       17.6719866336       -2.0242407861  MEMB      104             0.0000000000
     14793       132  DOPC      C215          -25.5088794674       15.9844946049       -3.3499768605  MEMB      104             0.0000000000
     14794       132  DOPC      H15R          -24.6321448273       15.4397731459       -2.9358751651  MEMB      104             0.0000000000
     14795       132  DOPC      H15S          -25.5705943072       15.7698470661       -4.4396299715  MEMB      104             0.0000000000
     14796       132  DOPC      C216          -26.7738403213       15.4470380992       -2.6767093287  MEMB      104             0.0000000000
     14797       132  DOPC      H16R          -27.6658129035       15.8379201184       -3.2124834673  MEMB      104             0.0000000000
     14798       132  DOPC      H16S          -26.8065098848       15.8332762218       -1.6332014671  MEMB      104             0.0000000000
     14799       132  DOPC      C217          -26.8251430217       13.9159717293       -2.6420558139  MEMB      104             0.0000000000
     14800       132  DOPC      H17R          -25.9801937597       13.4979514741       -3.2357878702  MEMB      104             0.0000000000
     14801       132  DOPC      H17S          -27.7554475856       13.5801260396       -3.1431523291  MEMB      104             0.0000000000
     14802       132  DOPC      C218          -26.7911926546       13.3495655814       -1.2212505452  MEMB      104             0.0000000000
     14803       132  DOPC      H18R          -27.6376125198       13.7540459398       -0.6227927883  MEMB      104             0.0000000000
     14804       132  DOPC      H18S          -25.8393700842       13.6305386330       -0.7192225603  MEMB      104             0.0000000000
     14805       132  DOPC      H18T          -26.8728432717       12.2415060784       -1.2383928649  MEMB      104             0.0000000000
     14806       132  DOPC      C33           -27.6128170290       16.6298930626      -12.4780773570  MEMB      104             0.0000000000
     14807       132  DOPC      H3X           -27.5800381860       15.6336523860      -12.0770090096  MEMB      104             0.0000000000
     14808       132  DOPC      H3Y           -28.1186190457       16.3500221595      -13.4267121615  MEMB      104             0.0000000000
     14809       132  DOPC      C34           -28.5609313827       17.5189357706      -11.6432309557  MEMB      104             0.0000000000
     14810       132  DOPC      H4X           -29.5753310867       17.1806388807      -11.8806793332  MEMB      104             0.0000000000
     14811       132  DOPC      H4Y           -28.4672659176       18.5415139790      -12.0668494640  MEMB      104             0.0000000000
     14812       132  DOPC      C35           -28.5713229344       17.6091200333      -10.0716811469  MEMB      104             0.0000000000
     14813       132  DOPC      H5X           -29.4088560682       18.3026800454       -9.9181579433  MEMB      104             0.0000000000
     14814       132  DOPC      H5Y           -27.8361843069       18.3268757465       -9.7406817743  MEMB      104             0.0000000000
     14815       132  DOPC      C36           -28.9319398424       16.3536273761       -9.1517529583  MEMB      104             0.0000000000
     14816       132  DOPC      H6X           -29.9788650482       16.6566674519       -8.8808568947  MEMB      104             0.0000000000
     14817       132  DOPC      H6Y           -29.1427726702       15.5439443325       -9.8338157673  MEMB      104             0.0000000000
     14818       132  DOPC      C37           -28.4438516525       15.8836427353       -7.6624341488  MEMB      104             0.0000000000
     14819       132  DOPC      H7X           -28.6191046487       16.6845262224       -6.9458347975  MEMB      104             0.0000000000
     14820       132  DOPC      H7Y           -29.3028968661       15.2102073942       -7.4175833261  MEMB      104             0.0000000000
     14821       132  DOPC      C38           -27.2367202411       14.9791575726       -7.0020555573  MEMB      104             0.0000000000
     14822       132  DOPC      H8X           -27.5594361851       13.9128737328       -7.0587021916  MEMB      104             0.0000000000
     14823       132  DOPC      H8Y           -27.3941988267       15.2782544323       -5.9172667871  MEMB      104             0.0000000000
     14824       132  DOPC      C39           -25.6978758361       15.0689986094       -7.1395660373  MEMB      104             0.0000000000
     14825       132  DOPC      H9X           -25.4049369684       16.0840955187       -7.3419189185  MEMB      104             0.0000000000
     14826       132  DOPC      C310          -24.5597953802       14.3275781357       -6.9509967280  MEMB      104             0.0000000000
     14827       132  DOPC      H10X          -23.6322757275       14.8423263998       -7.2557125305  MEMB      104             0.0000000000
     14828       132  DOPC      C311          -24.1882801566       12.9551088730       -6.4081404938  MEMB      104             0.0000000000
     14829       132  DOPC      H11X          -24.0798503822       12.2059551133       -7.2321091266  MEMB      104             0.0000000000
     14830       132  DOPC      H11Y          -24.9631166317       12.6081497077       -5.6946374972  MEMB      104             0.0000000000
     14831       132  DOPC      C312          -22.8518519505       12.8997056168       -5.6034890984  MEMB      104             0.0000000000
     14832       132  DOPC      H12X          -21.9656764044       12.7119041455       -6.2517636649  MEMB      104             0.0000000000
     14833       132  DOPC      H12Y          -22.9067937181       12.0430718491       -4.8948238062  MEMB      104             0.0000000000
     14834       132  DOPC      C313          -22.6215238961       14.2011855056       -4.8300302554  MEMB      104             0.0000000000
     14835       132  DOPC      H13X          -22.1828547013       14.9394874655       -5.5363307935  MEMB      104             0.0000000000
     14836       132  DOPC      H13Y          -23.6146195408       14.5726476141       -4.5085441903  MEMB      104             0.0000000000
     14837       132  DOPC      C314          -21.7368795662       14.1385881967       -3.5870523220  MEMB      104             0.0000000000
     14838       132  DOPC      H14X          -20.7433835227       13.7246020177       -3.8603506027  MEMB      104             0.0000000000
     14839       132  DOPC      H14Y          -21.5842316294       15.1852159138       -3.2324795921  MEMB      104             0.0000000000
     14840       132  DOPC      C315          -22.3441262608       13.3321814529       -2.4364101843  MEMB      104             0.0000000000
     14841       132  DOPC      H15X          -22.6142424302       12.3182941279       -2.8051979929  MEMB      104             0.0000000000
     14842       132  DOPC      H15Y          -23.2870053232       13.8016385002       -2.0759156240  MEMB      104             0.0000000000
     14843       132  DOPC      C316          -21.3511647534       13.1854414842       -1.2787584913  MEMB      104             0.0000000000
     14844       132  DOPC      H16X          -21.5657617170       12.2295437213       -0.7697571636  MEMB      104             0.0000000000
     14845       132  DOPC      H16Y          -20.3066050397       13.1380943837       -1.6517778932  MEMB      104             0.0000000000
     14846       132  DOPC      C317          -21.5104148950       14.2370203017       -0.1855920510  MEMB      104             0.0000000000
     14847       132  DOPC      H17X          -22.6017019612       14.3865677550       -0.0390737002  MEMB      104             0.0000000000
     14848       132  DOPC      H17Y          -21.0961064968       13.8168110432        0.7615208115  MEMB      104             0.0000000000
     14849       132  DOPC      C318          -20.8228050990       15.5657380112       -0.4765619574  MEMB      104             0.0000000000
     14850       132  DOPC      H18X          -21.3683261583       16.1325073039       -1.2615102154  MEMB      104             0.0000000000
     14851       132  DOPC      H18Y          -20.7855220686       16.1922362882        0.4410330249  MEMB      104             0.0000000000
     14852       132  DOPC      H18Z          -19.7812953161       15.3883309229       -0.8215390565  MEMB      104             0.0000000000
     14853       133  DOPC      N               4.9820446854      -28.8897104424      -17.2480086588  MEMB      105             0.0000000000
     14854       133  DOPC      C12             4.9554943883      -28.4741646622      -18.7162497732  MEMB      105             0.0000000000
     14855       133  DOPC      H12A            5.9347816953      -28.6350789285      -19.1726983532  MEMB      105             0.0000000000
     14856       133  DOPC      H12B            4.7517527117      -27.4203651703      -18.7708529592  MEMB      105             0.0000000000
     14857       133  DOPC      C13             3.6221200280      -28.7724909702      -16.6283276241  MEMB      105             0.0000000000
     14858       133  DOPC      H13A            3.6500016616      -29.1221089574      -15.6015345015  MEMB      105             0.0000000000
     14859       133  DOPC      H13B            3.2471411174      -27.7562712775      -16.6292975811  MEMB      105             0.0000000000
     14860       133  DOPC      H13C            2.9383883218      -29.4161252708      -17.1766615568  MEMB      105             0.0000000000
     14861       133  DOPC      C14             5.9503605680      -28.0659112622      -16.4611291228  MEMB      105             0.0000000000
     14862       133  DOPC      H14A            5.5871577261      -27.0553770402      -16.3417681447  MEMB      105             0.0000000000
     14863       133  DOPC      H14B            6.0888732752      -28.5023025505      -15.4756737549  MEMB      105             0.0000000000
     14864       133  DOPC      H14C            6.9247006322      -28.0356284857      -16.9376837248  MEMB      105             0.0000000000
     14865       133  DOPC      C15             5.4094976080      -30.3136897267      -17.1755990728  MEMB      105             0.0000000000
     14866       133  DOPC      H15A            4.8514628864      -30.8952867212      -17.9191575943  MEMB      105             0.0000000000
     14867       133  DOPC      H15B            5.2382608120      -30.7620485600      -16.2097191178  MEMB      105             0.0000000000
     14868       133  DOPC      H15C            6.4497908959      -30.4434721968      -17.4417505071  MEMB      105             0.0000000000
     14869       133  DOPC      C11             3.9364731018      -29.1958314632      -19.6279359701  MEMB      105             0.0000000000
     14870       133  DOPC      H11A            2.9392694300      -29.2467163438      -19.1461758750  MEMB      105             0.0000000000
     14871       133  DOPC      H11B            3.8041193220      -28.5900660765      -20.5584499021  MEMB      105             0.0000000000
     14872       133  DOPC      P               4.9159293876      -30.9612334088      -21.2801479187  MEMB      105             0.0000000000
     14873       133  DOPC      O13             6.0362078850      -30.0533922656      -21.6230465139  MEMB      105             0.0000000000
     14874       133  DOPC      O14             3.8036176012      -31.0444467973      -22.2607052164  MEMB      105             0.0000000000
     14875       133  DOPC      O12             4.3608841969      -30.5254658525      -19.8862961850  MEMB      105             0.0000000000
     14876       133  DOPC      O11             5.5214679568      -32.3926462039      -21.0107834263  MEMB      105             0.0000000000
     14877       133  DOPC      C1              6.1332053350      -32.6142439944      -19.7467587953  MEMB      105             0.0000000000
     14878       133  DOPC      HA              6.4596160575      -31.6825511720      -19.2279371555  MEMB      105             0.0000000000
     14879       133  DOPC      HB              7.0557596023      -33.2017189645      -19.9269537438  MEMB      105             0.0000000000
     14880       133  DOPC      C2              5.1942204705      -33.4493147478      -18.8472815234  MEMB      105             0.0000000000
     14881       133  DOPC      HS              4.7525941088      -34.2000614058      -19.5300144818  MEMB      105             0.0000000000
     14882       133  DOPC      O21             4.1492185528      -32.6507550326      -18.2667647583  MEMB      105             0.0000000000
     14883       133  DOPC      C21             3.1972478557      -33.3808178406      -17.7456353924  MEMB      105             0.0000000000
     14884       133  DOPC      O22             3.0371517674      -34.5827913870      -17.9042302312  MEMB      105             0.0000000000
     14885       133  DOPC      C22             2.2934424124      -32.4928328144      -16.8837486092  MEMB      105             0.0000000000
     14886       133  DOPC      H2R             1.3896002204      -32.2674356559      -17.4824290728  MEMB      105             0.0000000000
     14887       133  DOPC      H2S             2.8007311569      -31.5303138158      -16.6880420626  MEMB      105             0.0000000000
     14888       133  DOPC      C3              6.0146295301      -34.1094221573      -17.7214733337  MEMB      105             0.0000000000
     14889       133  DOPC      HX              6.6809191483      -34.8702272011      -18.1906175883  MEMB      105             0.0000000000
     14890       133  DOPC      HY              5.3493875211      -34.6304967611      -16.9947503511  MEMB      105             0.0000000000
     14891       133  DOPC      O31             6.7766357603      -33.0771916428      -17.0709995470  MEMB      105             0.0000000000
     14892       133  DOPC      C31             7.6310560613      -33.5570714627      -16.2043526269  MEMB      105             0.0000000000
     14893       133  DOPC      O32             7.7716179263      -34.7286162919      -15.9077537175  MEMB      105             0.0000000000
     14894       133  DOPC      C32             8.5227759627      -32.4300033186      -15.7028867469  MEMB      105             0.0000000000
     14895       133  DOPC      H2X             9.3347838931      -32.9102473306      -15.1161819414  MEMB      105             0.0000000000
     14896       133  DOPC      H2Y             8.9634821920      -31.9330832418      -16.5919653420  MEMB      105             0.0000000000
     14897       133  DOPC      C23             1.8730681562      -33.1717300506      -15.5547657896  MEMB      105             0.0000000000
     14898       133  DOPC      H3R             1.6985755940      -34.2612172257      -15.6858128818  MEMB      105             0.0000000000
     14899       133  DOPC      H3S             0.9069697220      -32.7205307794      -15.2195734383  MEMB      105             0.0000000000
     14900       133  DOPC      C24             2.8568298351      -32.9462093764      -14.3987109878  MEMB      105             0.0000000000
     14901       133  DOPC      H4R             3.8281701111      -33.4548557655      -14.5818392355  MEMB      105             0.0000000000
     14902       133  DOPC      H4S             2.4176399630      -33.4088000193      -13.4812024520  MEMB      105             0.0000000000
     14903       133  DOPC      C25             3.0832831624      -31.4545544732      -14.1218945225  MEMB      105             0.0000000000
     14904       133  DOPC      H5R             2.1885299821      -30.8832456487      -14.4557730102  MEMB      105             0.0000000000
     14905       133  DOPC      H5S             3.9593101357      -31.0975891230      -14.7055054989  MEMB      105             0.0000000000
     14906       133  DOPC      C26             3.2863565132      -31.1392192336      -12.6419058819  MEMB      105             0.0000000000
     14907       133  DOPC      H6R             2.4949766074      -31.6284783003      -12.0298755160  MEMB      105             0.0000000000
     14908       133  DOPC      H6S             3.1942651961      -30.0392364391      -12.4928214369  MEMB      105             0.0000000000
     14909       133  DOPC      C27             4.6613899574      -31.5781290249      -12.1546814616  MEMB      105             0.0000000000
     14910       133  DOPC      H7R             5.4440758885      -31.0446476270      -12.7380294141  MEMB      105             0.0000000000
     14911       133  DOPC      H7S             4.8043098767      -32.6678171555      -12.3393439081  MEMB      105             0.0000000000
     14912       133  DOPC      C28             4.8685305101      -31.3170487724      -10.6591388458  MEMB      105             0.0000000000
     14913       133  DOPC      H8R             5.9061975780      -31.6363852661      -10.4866685972  MEMB      105             0.0000000000
     14914       133  DOPC      H8S             4.2026482734      -31.9886608654      -10.0722771150  MEMB      105             0.0000000000
     14915       133  DOPC      C29             4.7486142392      -29.8772821987      -10.2319009652  MEMB      105             0.0000000000
     14916       133  DOPC      H9R             4.8359671410      -29.1418557336      -11.0440333255  MEMB      105             0.0000000000
     14917       133  DOPC      C210            4.6302478023      -29.4415962820       -8.9645155222  MEMB      105             0.0000000000
     14918       133  DOPC      H10R            4.6180594783      -28.3582611747       -8.7742703426  MEMB      105             0.0000000000
     14919       133  DOPC      C211            4.5929857308      -30.3046316256       -7.7286420755  MEMB      105             0.0000000000
     14920       133  DOPC      H11R            5.6291619180      -30.4129564335       -7.3421727318  MEMB      105             0.0000000000
     14921       133  DOPC      H11S            4.2146555791      -31.3280507021       -7.9457352418  MEMB      105             0.0000000000
     14922       133  DOPC      C212            3.7567659354      -29.6836521795       -6.5924698052  MEMB      105             0.0000000000
     14923       133  DOPC      H12R            2.6925982711      -29.5870483626       -6.8972273360  MEMB      105             0.0000000000
     14924       133  DOPC      H12S            4.1565088350      -28.6624864993       -6.3872516431  MEMB      105             0.0000000000
     14925       133  DOPC      C213            3.8534405799      -30.4829907260       -5.2818193000  MEMB      105             0.0000000000
     14926       133  DOPC      H13R            3.5016293332      -29.8546070753       -4.4342199842  MEMB      105             0.0000000000
     14927       133  DOPC      H13S            4.9291383477      -30.7019259038       -5.1029548335  MEMB      105             0.0000000000
     14928       133  DOPC      C214            3.0389314118      -31.7872466904       -5.2861248148  MEMB      105             0.0000000000
     14929       133  DOPC      H14R            3.2498897974      -32.3494016658       -6.2235658624  MEMB      105             0.0000000000
     14930       133  DOPC      H14S            1.9537071201      -31.5401557843       -5.2832284036  MEMB      105             0.0000000000
     14931       133  DOPC      C215            3.3608296577      -32.7175603567       -4.1058665806  MEMB      105             0.0000000000
     14932       133  DOPC      H15R            2.7017659080      -33.6130150136       -4.1838232375  MEMB      105             0.0000000000
     14933       133  DOPC      H15S            3.1315833920      -32.2204278549       -3.1373048793  MEMB      105             0.0000000000
     14934       133  DOPC      C216            4.8234574292      -33.1898957312       -4.1218825121  MEMB      105             0.0000000000
     14935       133  DOPC      H16R            5.4893680154      -32.3505602118       -3.8265136184  MEMB      105             0.0000000000
     14936       133  DOPC      H16S            5.0928865768      -33.4774173951       -5.1618862878  MEMB      105             0.0000000000
     14937       133  DOPC      C217            5.0606169646      -34.3873069998       -3.1979437151  MEMB      105             0.0000000000
     14938       133  DOPC      H17R            4.1755198245      -35.0547445931       -3.2816415123  MEMB      105             0.0000000000
     14939       133  DOPC      H17S            5.0994331391      -34.0255472931       -2.1438023403  MEMB      105             0.0000000000
     14940       133  DOPC      C218            6.3161896095      -35.2059658514       -3.5131463090  MEMB      105             0.0000000000
     14941       133  DOPC      H18R            7.0924793679      -34.5900242726       -4.0100284565  MEMB      105             0.0000000000
     14942       133  DOPC      H18S            6.0744950904      -36.0621731856       -4.1792529905  MEMB      105             0.0000000000
     14943       133  DOPC      H18T            6.7496558946      -35.6038331495       -2.5740716282  MEMB      105             0.0000000000
     14944       133  DOPC      C33             7.8122875066      -31.3992968093      -14.7961772060  MEMB      105             0.0000000000
     14945       133  DOPC      H3X             7.8678504025      -31.8120770072      -13.7621349458  MEMB      105             0.0000000000
     14946       133  DOPC      H3Y             6.7390665137      -31.2900827340      -15.0386461237  MEMB      105             0.0000000000
     14947       133  DOPC      C34             8.4543701858      -30.0012273320      -14.8602148060  MEMB      105             0.0000000000
     14948       133  DOPC      H4X             8.3416270762      -29.5463340977      -15.8636186881  MEMB      105             0.0000000000
     14949       133  DOPC      H4Y             9.5424157935      -30.1438009949      -14.6970892404  MEMB      105             0.0000000000
     14950       133  DOPC      C35             7.9707488289      -29.0397561294      -13.7554867564  MEMB      105             0.0000000000
     14951       133  DOPC      H5X             6.8894130631      -28.8157429953      -13.8561254468  MEMB      105             0.0000000000
     14952       133  DOPC      H5Y             8.5352520103      -28.0807611764      -13.8180411622  MEMB      105             0.0000000000
     14953       133  DOPC      C36             8.2195942930      -29.7131470871      -12.4088628526  MEMB      105             0.0000000000
     14954       133  DOPC      H6X             7.4322490580      -30.4780874730      -12.2324602305  MEMB      105             0.0000000000
     14955       133  DOPC      H6Y             9.1954662770      -30.2405429494      -12.5172875935  MEMB      105             0.0000000000
     14956       133  DOPC      C37             8.2963360450      -28.8708418474      -11.1395930186  MEMB      105             0.0000000000
     14957       133  DOPC      H7X             9.1792452039      -28.1955904087      -11.1810092186  MEMB      105             0.0000000000
     14958       133  DOPC      H7Y             7.3879971338      -28.2405173409      -11.0119373083  MEMB      105             0.0000000000
     14959       133  DOPC      C38             8.4114431932      -29.8158677888       -9.9241921105  MEMB      105             0.0000000000
     14960       133  DOPC      H8X             7.4102769480      -30.2453048785       -9.7120045607  MEMB      105             0.0000000000
     14961       133  DOPC      H8Y             8.6851084860      -29.1706110354       -9.0618064888  MEMB      105             0.0000000000
     14962       133  DOPC      C39             9.4184604038      -30.9320777020      -10.1070156327  MEMB      105             0.0000000000
     14963       133  DOPC      H9X            10.4107762155      -30.5531838681      -10.3715393460  MEMB      105             0.0000000000
     14964       133  DOPC      C310            9.2978239398      -32.2612551279       -9.8995051972  MEMB      105             0.0000000000
     14965       133  DOPC      H10X           10.1649838931      -32.8986755322      -10.1334401308  MEMB      105             0.0000000000
     14966       133  DOPC      C311            8.1177184832      -33.0605571276       -9.4063414323  MEMB      105             0.0000000000
     14967       133  DOPC      H11X            7.9830766834      -33.9764697693      -10.0285693037  MEMB      105             0.0000000000
     14968       133  DOPC      H11Y            7.1703078273      -32.5053076468       -9.4316652404  MEMB      105             0.0000000000
     14969       133  DOPC      C312            8.3148440060      -33.4593659948       -7.9346993790  MEMB      105             0.0000000000
     14970       133  DOPC      H12X            9.3823392480      -33.6926898534       -7.7517504238  MEMB      105             0.0000000000
     14971       133  DOPC      H12Y            7.7129135337      -34.3811334848       -7.7501354044  MEMB      105             0.0000000000
     14972       133  DOPC      C313            7.8579072881      -32.4014957233       -6.9116616849  MEMB      105             0.0000000000
     14973       133  DOPC      H13X            6.8283538071      -32.0795433738       -7.1689990892  MEMB      105             0.0000000000
     14974       133  DOPC      H13Y            7.7912352240      -32.8919504814       -5.9184760210  MEMB      105             0.0000000000
     14975       133  DOPC      C314            8.7747825589      -31.1660188105       -6.7821002485  MEMB      105             0.0000000000
     14976       133  DOPC      H14X            9.8434069609      -31.4665410470       -6.8528781330  MEMB      105             0.0000000000
     14977       133  DOPC      H14Y            8.5497160438      -30.4810973912       -7.6020796040  MEMB      105             0.0000000000
     14978       133  DOPC      C315            8.5488600894      -30.3880684911       -5.4865317756  MEMB      105             0.0000000000
     14979       133  DOPC      H15X            9.1053276716      -30.9640051174       -4.7329740819  MEMB      105             0.0000000000
     14980       133  DOPC      H15Y            7.4667590294      -30.4000246150       -5.2271649693  MEMB      105             0.0000000000
     14981       133  DOPC      C316            9.0840262156      -28.9508151179       -5.3566813829  MEMB      105             0.0000000000
     14982       133  DOPC      H16X           10.1688095070      -28.9240368942       -5.6025379551  MEMB      105             0.0000000000
     14983       133  DOPC      H16Y            8.5446636490      -28.2668758483       -6.0458745426  MEMB      105             0.0000000000
     14984       133  DOPC      C317            8.8671178704      -28.5390118496       -3.8890481918  MEMB      105             0.0000000000
     14985       133  DOPC      H17X            7.7698008620      -28.5342204790       -3.6906810057  MEMB      105             0.0000000000
     14986       133  DOPC      H17Y            9.3088085868      -29.3595609537       -3.2798926118  MEMB      105             0.0000000000
     14987       133  DOPC      C318            9.4806645882      -27.2342500230       -3.3796762141  MEMB      105             0.0000000000
     14988       133  DOPC      H18X            9.1636747242      -27.0773815320       -2.3212478282  MEMB      105             0.0000000000
     14989       133  DOPC      H18Y           10.5901620385      -27.3009317472       -3.3901978883  MEMB      105             0.0000000000
     14990       133  DOPC      H18Z            9.1568356951      -26.3598714657       -3.9773431649  MEMB      105             0.0000000000
     14991       134  DOPC      N              14.4693890704       29.1086323307      -18.1655249516  MEMB      106             0.0000000000
     14992       134  DOPC      C12            15.3035905759       28.6770145642      -19.3692915107  MEMB      106             0.0000000000
     14993       134  DOPC      H12A           16.3178956126       29.0122354375      -19.2215530556  MEMB      106             0.0000000000
     14994       134  DOPC      H12B           14.9253505797       29.1906329510      -20.2487183031  MEMB      106             0.0000000000
     14995       134  DOPC      C13            13.0263392567       28.9053220553      -18.5219544449  MEMB      106             0.0000000000
     14996       134  DOPC      H13A           12.7639150945       29.4655416008      -19.4166436214  MEMB      106             0.0000000000
     14997       134  DOPC      H13B           12.8110634289       27.8586160172      -18.7284757425  MEMB      106             0.0000000000
     14998       134  DOPC      H13C           12.3195372988       29.2435921590      -17.7817347619  MEMB      106             0.0000000000
     14999       134  DOPC      C14            14.6458941935       30.5728451318      -17.8968474893  MEMB      106             0.0000000000
     15000       134  DOPC      H14A           14.2344631202       30.8327197507      -16.9315615908  MEMB      106             0.0000000000
     15001       134  DOPC      H14B           15.6809627153       30.8830508236      -17.9541693222  MEMB      106             0.0000000000
     15002       134  DOPC      H14C           14.0839657612       31.1412245363      -18.6445394135  MEMB      106             0.0000000000
     15003       134  DOPC      C15            14.8744598086       28.2561523877      -17.0009330174  MEMB      106             0.0000000000
     15004       134  DOPC      H15A           14.3532614085       28.5167855665      -16.0970934322  MEMB      106             0.0000000000
     15005       134  DOPC      H15B           15.9421548976       28.2825621875      -16.8128699347  MEMB      106             0.0000000000
     15006       134  DOPC      H15C           14.6368255573       27.2199084080      -17.2537782510  MEMB      106             0.0000000000
     15007       134  DOPC      C11            15.3432593416       27.1613999639      -19.7251165421  MEMB      106             0.0000000000
     15008       134  DOPC      H11A           16.0611580495       27.0413798767      -20.5680251099  MEMB      106             0.0000000000
     15009       134  DOPC      H11B           15.7381233342       26.5497899456      -18.8815519596  MEMB      106             0.0000000000
     15010       134  DOPC      P              13.3135942214       25.4121919093      -19.7709425216  MEMB      106             0.0000000000
     15011       134  DOPC      O13            14.1870696349       24.5135126309      -19.0164655064  MEMB      106             0.0000000000
     15012       134  DOPC      O14            12.6933439414       24.8777468462      -21.0110680770  MEMB      106             0.0000000000
     15013       134  DOPC      O12            14.0736935435       26.7199765736      -20.1663574885  MEMB      106             0.0000000000
     15014       134  DOPC      O11            12.2500461738       26.0379888445      -18.8174530347  MEMB      106             0.0000000000
     15015       134  DOPC      C1             11.6220761876       25.2318433626      -17.8399893700  MEMB      106             0.0000000000
     15016       134  DOPC      HA             12.3649034133       24.7244909259      -17.1761616140  MEMB      106             0.0000000000
     15017       134  DOPC      HB             10.9769934200       24.4509388527      -18.3068454814  MEMB      106             0.0000000000
     15018       134  DOPC      C2             10.7692314936       26.1989565603      -17.0153673080  MEMB      106             0.0000000000
     15019       134  DOPC      HS             10.2002861083       26.8089935962      -17.7674107826  MEMB      106             0.0000000000
     15020       134  DOPC      O21            11.6709475643       26.9697142338      -16.1825156210  MEMB      106             0.0000000000
     15021       134  DOPC      C21            11.2725808046       28.2209499110      -16.0613562785  MEMB      106             0.0000000000
     15022       134  DOPC      O22            10.3122239492       28.7136572692      -16.6155381002  MEMB      106             0.0000000000
     15023       134  DOPC      C22            12.2558778949       28.9893768535      -15.1883638025  MEMB      106             0.0000000000
     15024       134  DOPC      H2R            12.7051785295       29.7905194830      -15.8092912613  MEMB      106             0.0000000000
     15025       134  DOPC      H2S            13.0455327961       28.3024388292      -14.8222351939  MEMB      106             0.0000000000
     15026       134  DOPC      C3              9.7524747618       25.4488712418      -16.1444418848  MEMB      106             0.0000000000
     15027       134  DOPC      HX              8.9385099467       25.0699372243      -16.7991840526  MEMB      106             0.0000000000
     15028       134  DOPC      HY              9.2865824770       26.1612454005      -15.4206069586  MEMB      106             0.0000000000
     15029       134  DOPC      O31            10.4345080104       24.3335956439      -15.5493971113  MEMB      106             0.0000000000
     15030       134  DOPC      C31            10.6411054434       24.3726944129      -14.2536333518  MEMB      106             0.0000000000
     15031       134  DOPC      O32            10.1692751443       25.1924888995      -13.4822153176  MEMB      106             0.0000000000
     15032       134  DOPC      C32            11.5376834013       23.1972530959      -13.8717055013  MEMB      106             0.0000000000
     15033       134  DOPC      H2X            10.9079568056       22.3366607745      -13.5858713485  MEMB      106             0.0000000000
     15034       134  DOPC      H2Y            12.1293334022       22.8906161679      -14.7628299493  MEMB      106             0.0000000000
     15035       134  DOPC      C23            11.5192397789       29.6294157808      -14.0102431672  MEMB      106             0.0000000000
     15036       134  DOPC      H3R            10.7202216673       30.3109219578      -14.3871844186  MEMB      106             0.0000000000
     15037       134  DOPC      H3S            12.2279565604       30.2487597863      -13.4154323924  MEMB      106             0.0000000000
     15038       134  DOPC      C24            10.8926135579       28.5733488631      -13.1054770760  MEMB      106             0.0000000000
     15039       134  DOPC      H4R            10.8467142008       27.5750117905      -13.5949633257  MEMB      106             0.0000000000
     15040       134  DOPC      H4S             9.8388038529       28.8633948704      -12.8938744995  MEMB      106             0.0000000000
     15041       134  DOPC      C25            11.6158905488       28.4172381551      -11.7739382027  MEMB      106             0.0000000000
     15042       134  DOPC      H5R            11.7461202124       29.4147282747      -11.2972435693  MEMB      106             0.0000000000
     15043       134  DOPC      H5S            12.6191142014       27.9640324723      -11.9273315344  MEMB      106             0.0000000000
     15044       134  DOPC      C26            10.7908839230       27.5192993379      -10.8601377555  MEMB      106             0.0000000000
     15045       134  DOPC      H6R            10.6641493814       26.5276281311      -11.3523649751  MEMB      106             0.0000000000
     15046       134  DOPC      H6S             9.7808623376       27.9582609580      -10.7414312262  MEMB      106             0.0000000000
     15047       134  DOPC      C27            11.4337428144       27.3329907827       -9.4897564932  MEMB      106             0.0000000000
     15048       134  DOPC      H7R            11.8143022889       28.3070503626       -9.1116326676  MEMB      106             0.0000000000
     15049       134  DOPC      H7S            12.3163523879       26.6788878235       -9.6506775360  MEMB      106             0.0000000000
     15050       134  DOPC      C28            10.4670886601       26.7343504868       -8.4546432427  MEMB      106             0.0000000000
     15051       134  DOPC      H8R             9.6310490419       27.4501657040       -8.3038073566  MEMB      106             0.0000000000
     15052       134  DOPC      H8S            10.9873568012       26.6270796338       -7.4767999549  MEMB      106             0.0000000000
     15053       134  DOPC      C29             9.9203139753       25.4219419847       -8.9466939806  MEMB      106             0.0000000000
     15054       134  DOPC      H9R             8.8520946121       25.4228507772       -9.2099759359  MEMB      106             0.0000000000
     15055       134  DOPC      C210           10.6342634633       24.2985409880       -9.1105819014  MEMB      106             0.0000000000
     15056       134  DOPC      H10R           10.1308011354       23.3915671960       -9.4643224092  MEMB      106             0.0000000000
     15057       134  DOPC      C211           12.1022847828       24.1271186283       -8.8291618663  MEMB      106             0.0000000000
     15058       134  DOPC      H11R           12.4318619070       24.8046354977       -8.0125347121  MEMB      106             0.0000000000
     15059       134  DOPC      H11S           12.7157733627       24.3936064568       -9.7197386761  MEMB      106             0.0000000000
     15060       134  DOPC      C212           12.4162746780       22.6737259769       -8.4348880185  MEMB      106             0.0000000000
     15061       134  DOPC      H12R           13.4851503052       22.6225217317       -8.1256936261  MEMB      106             0.0000000000
     15062       134  DOPC      H12S           12.3078829522       22.0219087048       -9.3316233047  MEMB      106             0.0000000000
     15063       134  DOPC      C213           11.5285222977       22.1015215363       -7.3107896051  MEMB      106             0.0000000000
     15064       134  DOPC      H13R           11.9295181684       21.1007713512       -7.0317927329  MEMB      106             0.0000000000
     15065       134  DOPC      H13S           10.4951603606       21.9407649494       -7.6914592797  MEMB      106             0.0000000000
     15066       134  DOPC      C214           11.4479910813       22.9672319233       -6.0409142135  MEMB      106             0.0000000000
     15067       134  DOPC      H14R           10.9323623689       22.3659375662       -5.2585221050  MEMB      106             0.0000000000
     15068       134  DOPC      H14S           10.8286471542       23.8740177725       -6.2238192101  MEMB      106             0.0000000000
     15069       134  DOPC      C215           12.8290769491       23.3977836721       -5.5352936291  MEMB      106             0.0000000000
     15070       134  DOPC      H15R           13.1199009589       24.3633283613       -5.9988800301  MEMB      106             0.0000000000
     15071       134  DOPC      H15S           13.5748725907       22.6425034513       -5.8680894804  MEMB      106             0.0000000000
     15072       134  DOPC      C216           12.9231370405       23.5200693647       -4.0134126318  MEMB      106             0.0000000000
     15073       134  DOPC      H16R           12.2282907750       22.7899156017       -3.5396036920  MEMB      106             0.0000000000
     15074       134  DOPC      H16S           12.5985430206       24.5394722695       -3.7059594864  MEMB      106             0.0000000000
     15075       134  DOPC      C217           14.3412788952       23.2287338765       -3.4981447028  MEMB      106             0.0000000000
     15076       134  DOPC      H17R           14.6056121308       22.1737821824       -3.7219470354  MEMB      106             0.0000000000
     15077       134  DOPC      H17S           14.3230754211       23.3063473550       -2.3961261384  MEMB      106             0.0000000000
     15078       134  DOPC      C218           15.4432088748       24.1372341992       -4.0549754010  MEMB      106             0.0000000000
     15079       134  DOPC      H18R           15.1084152165       25.1960868499       -4.0671839074  MEMB      106             0.0000000000
     15080       134  DOPC      H18S           15.7141066398       23.8419992379       -5.0915378759  MEMB      106             0.0000000000
     15081       134  DOPC      H18T           16.3518542617       24.0658458638       -3.4174768389  MEMB      106             0.0000000000
     15082       134  DOPC      C33            12.5027521484       23.6123095620      -12.7474450147  MEMB      106             0.0000000000
     15083       134  DOPC      H3X            13.1109398146       22.7236141279      -12.4604947087  MEMB      106             0.0000000000
     15084       134  DOPC      H3Y            11.9438195102       23.9563115534      -11.8500507075  MEMB      106             0.0000000000
     15085       134  DOPC      C34            13.4435495432       24.7063013067      -13.2587516537  MEMB      106             0.0000000000
     15086       134  DOPC      H4X            12.8724512345       25.6086834549      -13.5759320385  MEMB      106             0.0000000000
     15087       134  DOPC      H4Y            13.9511279819       24.2967311667      -14.1652881927  MEMB      106             0.0000000000
     15088       134  DOPC      C35            14.5328706195       25.1454154700      -12.2825219893  MEMB      106             0.0000000000
     15089       134  DOPC      H5X            14.8080411402       24.3101274240      -11.6006766847  MEMB      106             0.0000000000
     15090       134  DOPC      H5Y            14.1334919909       25.9644339723      -11.6455216792  MEMB      106             0.0000000000
     15091       134  DOPC      C36            15.7692567948       25.5788356705      -13.0844309600  MEMB      106             0.0000000000
     15092       134  DOPC      H6X            16.2430207294       24.6433362457      -13.4744426174  MEMB      106             0.0000000000
     15093       134  DOPC      H6Y            15.4681522558       26.1881360937      -13.9653125250  MEMB      106             0.0000000000
     15094       134  DOPC      C37            16.8322387290       26.3256206331      -12.2798060914  MEMB      106             0.0000000000
     15095       134  DOPC      H7X            16.9160003182       25.8621446442      -11.2739362584  MEMB      106             0.0000000000
     15096       134  DOPC      H7Y            17.8112428134       26.1776942359      -12.7983001366  MEMB      106             0.0000000000
     15097       134  DOPC      C38            16.6513041877       27.8466190343      -12.1507675002  MEMB      106             0.0000000000
     15098       134  DOPC      H8X            16.6693151330       28.3185364444      -13.1573038684  MEMB      106             0.0000000000
     15099       134  DOPC      H8Y            17.5614291814       28.1774565915      -11.6058578371  MEMB      106             0.0000000000
     15100       134  DOPC      C39            15.4527399077       28.2999455539      -11.3776482243  MEMB      106             0.0000000000
     15101       134  DOPC      H9X            14.6260029741       28.7143186825      -11.9701634894  MEMB      106             0.0000000000
     15102       134  DOPC      C310           15.3206734411       28.1775094914      -10.0512341919  MEMB      106             0.0000000000
     15103       134  DOPC      H10X           14.3770492081       28.5029908833       -9.5897655487  MEMB      106             0.0000000000
     15104       134  DOPC      C311           16.3349136256       27.5694167784       -9.1079629274  MEMB      106             0.0000000000
     15105       134  DOPC      H11X           16.7253744115       28.3409999810       -8.4131834444  MEMB      106             0.0000000000
     15106       134  DOPC      H11Y           17.2342810815       27.1753493187       -9.6305700365  MEMB      106             0.0000000000
     15107       134  DOPC      C312           15.7083473379       26.4128471463       -8.3054199410  MEMB      106             0.0000000000
     15108       134  DOPC      H12X           16.4724515303       26.0188662330       -7.5989364403  MEMB      106             0.0000000000
     15109       134  DOPC      H12Y           15.4338063430       25.5813217253       -8.9953794216  MEMB      106             0.0000000000
     15110       134  DOPC      C313           14.4675033900       26.8288457286       -7.4975852352  MEMB      106             0.0000000000
     15111       134  DOPC      H13X           13.6345632107       27.0174242345       -8.1962244850  MEMB      106             0.0000000000
     15112       134  DOPC      H13Y           14.1536290361       25.9918662414       -6.8415378141  MEMB      106             0.0000000000
     15113       134  DOPC      C314           14.6928887048       28.0953813773       -6.6691112970  MEMB      106             0.0000000000
     15114       134  DOPC      H14X           15.5633844960       27.9097522141       -6.0111288192  MEMB      106             0.0000000000
     15115       134  DOPC      H14Y           14.9353618406       28.9498221476       -7.3387721143  MEMB      106             0.0000000000
     15116       134  DOPC      C315           13.5203214829       28.5049264987       -5.7823101694  MEMB      106             0.0000000000
     15117       134  DOPC      H15X           12.5500022369       28.2392654353       -6.2545468224  MEMB      106             0.0000000000
     15118       134  DOPC      H15Y           13.5502165160       29.6153929355       -5.6672007301  MEMB      106             0.0000000000
     15119       134  DOPC      C316           13.6552680638       27.8815236814       -4.3910791198  MEMB      106             0.0000000000
     15120       134  DOPC      H16X           13.5117657883       26.7804362446       -4.4527507211  MEMB      106             0.0000000000
     15121       134  DOPC      H16Y           14.6864594490       28.0688960494       -4.0106119483  MEMB      106             0.0000000000
     15122       134  DOPC      C317           12.6746518516       28.4889121193       -3.3979974138  MEMB      106             0.0000000000
     15123       134  DOPC      H17X           12.8004528447       29.5968907058       -3.4116055656  MEMB      106             0.0000000000
     15124       134  DOPC      H17Y           11.6419511256       28.2508567884       -3.7426711012  MEMB      106             0.0000000000
     15125       134  DOPC      C318           12.8670201078       27.9893941661       -1.9690459199  MEMB      106             0.0000000000
     15126       134  DOPC      H18X           12.2323978612       28.5750973196       -1.2700229787  MEMB      106             0.0000000000
     15127       134  DOPC      H18Y           12.5831563525       26.9176735435       -1.8923798396  MEMB      106             0.0000000000
     15128       134  DOPC      H18Z           13.9251959363       28.1036430189       -1.6519588420  MEMB      106             0.0000000000
     15129       135  DOPC      N               5.2527349954       32.3135035667      -18.7805822232  MEMB      107             0.0000000000
     15130       135  DOPC      C12             6.3334615746       31.7518342530      -19.6929976671  MEMB      107             0.0000000000
     15131       135  DOPC      H12A            7.2214333848       32.3758277321      -19.6598400845  MEMB      107             0.0000000000
     15132       135  DOPC      H12B            6.0142665899       31.7925250081      -20.7260642287  MEMB      107             0.0000000000
     15133       135  DOPC      C13             5.8571895265       32.6420570062      -17.4430808466  MEMB      107             0.0000000000
     15134       135  DOPC      H13A            5.1392629995       33.1284502412      -16.7954353343  MEMB      107             0.0000000000
     15135       135  DOPC      H13B            6.1735635677       31.7111388900      -16.9635236055  MEMB      107             0.0000000000
     15136       135  DOPC      H13C            6.7331121513       33.2748958935      -17.5238360391  MEMB      107             0.0000000000
     15137       135  DOPC      C14             4.1768547136       31.2925080480      -18.5878840909  MEMB      107             0.0000000000
     15138       135  DOPC      H14A            3.2926783655       31.6710067653      -18.1031969050  MEMB      107             0.0000000000
     15139       135  DOPC      H14B            3.9018760068       30.8079056284      -19.5256245162  MEMB      107             0.0000000000
     15140       135  DOPC      H14C            4.6140932653       30.4881070372      -17.9930216006  MEMB      107             0.0000000000
     15141       135  DOPC      C15             4.6330455336       33.4907635726      -19.4135032742  MEMB      107             0.0000000000
     15142       135  DOPC      H15A            4.0443760205       33.2104182615      -20.2858801672  MEMB      107             0.0000000000
     15143       135  DOPC      H15B            5.3839718077       34.1543116584      -19.8381074214  MEMB      107             0.0000000000
     15144       135  DOPC      H15C            3.9682172235       34.0138043318      -18.7383077724  MEMB      107             0.0000000000
     15145       135  DOPC      C11             6.7591036316       30.3106314769      -19.3825015174  MEMB      107             0.0000000000
     15146       135  DOPC      H11A            7.6593748097       30.0419425773      -19.9583137425  MEMB      107             0.0000000000
     15147       135  DOPC      H11B            7.0625844242       30.3077716650      -18.3050279124  MEMB      107             0.0000000000
     15148       135  DOPC      P               6.1292532131       27.9024211725      -19.1922404628  MEMB      107             0.0000000000
     15149       135  DOPC      O13             7.2212864479       27.3864943406      -20.0408814387  MEMB      107             0.0000000000
     15150       135  DOPC      O14             4.9008186138       27.0901013957      -19.2130164951  MEMB      107             0.0000000000
     15151       135  DOPC      O12             5.7307059877       29.3579744419      -19.7084885212  MEMB      107             0.0000000000
     15152       135  DOPC      O11             6.6252517304       28.1963612011      -17.7288673535  MEMB      107             0.0000000000
     15153       135  DOPC      C1              5.9447447742       27.8663487351      -16.5298821033  MEMB      107             0.0000000000
     15154       135  DOPC      HA              6.6636806892       27.9950200683      -15.6889096057  MEMB      107             0.0000000000
     15155       135  DOPC      HB              5.6568204053       26.7916523662      -16.5449732391  MEMB      107             0.0000000000
     15156       135  DOPC      C2              4.6605727506       28.6960983139      -16.1606774876  MEMB      107             0.0000000000
     15157       135  DOPC      HS              3.9253767668       28.5688273317      -16.9879329802  MEMB      107             0.0000000000
     15158       135  DOPC      O21             4.9284937597       30.1108136136      -15.9227052742  MEMB      107             0.0000000000
     15159       135  DOPC      C21             3.8468160235       30.7404471322      -15.4303820158  MEMB      107             0.0000000000
     15160       135  DOPC      O22             2.7039962113       30.4770597008      -15.7564253394  MEMB      107             0.0000000000
     15161       135  DOPC      C22             4.1973558655       31.8025039773      -14.4047091092  MEMB      107             0.0000000000
     15162       135  DOPC      H2R             3.8524410817       32.7849957503      -14.7932613842  MEMB      107             0.0000000000
     15163       135  DOPC      H2S             5.2932533712       31.8337817466      -14.2548630805  MEMB      107             0.0000000000
     15164       135  DOPC      C3              4.0921053730       28.0510894450      -14.8671918443  MEMB      107             0.0000000000
     15165       135  DOPC      HX              4.0335001507       26.9529993465      -15.0351798402  MEMB      107             0.0000000000
     15166       135  DOPC      HY              3.0669728475       28.4011804642      -14.6251538514  MEMB      107             0.0000000000
     15167       135  DOPC      O31             5.0074369963       28.3835975063      -13.8099804298  MEMB      107             0.0000000000
     15168       135  DOPC      C31             4.8542906281       27.6973939508      -12.6980210873  MEMB      107             0.0000000000
     15169       135  DOPC      O32             4.0118798498       26.8385894594      -12.5072891322  MEMB      107             0.0000000000
     15170       135  DOPC      C32             5.8646441744       28.1837373700      -11.6624759780  MEMB      107             0.0000000000
     15171       135  DOPC      H2X             5.2785409460       28.5048540965      -10.7749685164  MEMB      107             0.0000000000
     15172       135  DOPC      H2Y             6.4803865529       27.3080534816      -11.3687182370  MEMB      107             0.0000000000
     15173       135  DOPC      C23             3.4463961735       31.4878365834      -13.0921886547  MEMB      107             0.0000000000
     15174       135  DOPC      H3R             3.8329573855       30.5428300049      -12.6479664589  MEMB      107             0.0000000000
     15175       135  DOPC      H3S             2.3640568465       31.3304724601      -13.3075476454  MEMB      107             0.0000000000
     15176       135  DOPC      C24             3.5492135648       32.5984130295      -12.0436069287  MEMB      107             0.0000000000
     15177       135  DOPC      H4R             2.8344735158       32.3638853314      -11.2214767047  MEMB      107             0.0000000000
     15178       135  DOPC      H4S             3.2471984775       33.5702364233      -12.4921533397  MEMB      107             0.0000000000
     15179       135  DOPC      C25             4.9583848758       32.6960330739      -11.4542303224  MEMB      107             0.0000000000
     15180       135  DOPC      H5R             5.6801287621       32.9032966579      -12.2759989845  MEMB      107             0.0000000000
     15181       135  DOPC      H5S             5.2321798314       31.7125684436      -11.0132164138  MEMB      107             0.0000000000
     15182       135  DOPC      C26             5.1196752845       33.7939297673      -10.3922219194  MEMB      107             0.0000000000
     15183       135  DOPC      H6R             4.9152737080       34.7767580128      -10.8748774210  MEMB      107             0.0000000000
     15184       135  DOPC      H6S             6.1880481613       33.8000282495      -10.0802568690  MEMB      107             0.0000000000
     15185       135  DOPC      C27             4.2180104010       33.6521594331       -9.1439437885  MEMB      107             0.0000000000
     15186       135  DOPC      H7R             3.1627445741       33.8401505055       -9.4435445354  MEMB      107             0.0000000000
     15187       135  DOPC      H7S             4.5016456055       34.4545367500       -8.4250031685  MEMB      107             0.0000000000
     15188       135  DOPC      C28             4.2761751967       32.2881511373       -8.4157268393  MEMB      107             0.0000000000
     15189       135  DOPC      H8R             3.8400189483       31.5057888528       -9.0764006201  MEMB      107             0.0000000000
     15190       135  DOPC      H8S             3.6424549684       32.3442588806       -7.5031130929  MEMB      107             0.0000000000
     15191       135  DOPC      C29             5.6890500312       31.9390064621       -8.0435360252  MEMB      107             0.0000000000
     15192       135  DOPC      H9R             6.4039313411       32.7678868905       -8.1530622563  MEMB      107             0.0000000000
     15193       135  DOPC      C210            6.1594048082       30.7452854271       -7.6506484738  MEMB      107             0.0000000000
     15194       135  DOPC      H10R            7.2346789699       30.6290061677       -7.5322988806  MEMB      107             0.0000000000
     15195       135  DOPC      C211            5.4493878756       29.4435694288       -7.4625074255  MEMB      107             0.0000000000
     15196       135  DOPC      H11R            5.6125134172       28.7731877038       -8.3348755828  MEMB      107             0.0000000000
     15197       135  DOPC      H11S            4.3543683443       29.5946342532       -7.3453641576  MEMB      107             0.0000000000
     15198       135  DOPC      C212            5.9893582571       28.7365813428       -6.2068439751  MEMB      107             0.0000000000
     15199       135  DOPC      H12R            5.3113469042       27.8673735268       -6.0582110703  MEMB      107             0.0000000000
     15200       135  DOPC      H12S            5.8877076568       29.4016572720       -5.3169785484  MEMB      107             0.0000000000
     15201       135  DOPC      C213            7.4514445000       28.2207488134       -6.2724235065  MEMB      107             0.0000000000
     15202       135  DOPC      H13R            8.1373218890       29.0722809543       -6.1034961440  MEMB      107             0.0000000000
     15203       135  DOPC      H13S            7.6594012943       27.8292388702       -7.2902039912  MEMB      107             0.0000000000
     15204       135  DOPC      C214            7.8383703594       27.1337207629       -5.2448751891  MEMB      107             0.0000000000
     15205       135  DOPC      H14R            8.7549147491       27.4493098739       -4.6986481699  MEMB      107             0.0000000000
     15206       135  DOPC      H14S            8.1147518392       26.1845484024       -5.7593218045  MEMB      107             0.0000000000
     15207       135  DOPC      C215            6.7398479259       26.8501959408       -4.2298204880  MEMB      107             0.0000000000
     15208       135  DOPC      H15R            6.1730836839       25.9472373912       -4.5196156149  MEMB      107             0.0000000000
     15209       135  DOPC      H15S            6.0308079405       27.6898882253       -4.0846192468  MEMB      107             0.0000000000
     15210       135  DOPC      C216            7.2074330289       26.4868166923       -2.8499528969  MEMB      107             0.0000000000
     15211       135  DOPC      H16R            8.1180041917       27.0363489668       -2.5584724774  MEMB      107             0.0000000000
     15212       135  DOPC      H16S            7.5299683130       25.4498469686       -2.9786178461  MEMB      107             0.0000000000
     15213       135  DOPC      C217            6.0385730731       26.7157660812       -1.8782384557  MEMB      107             0.0000000000
     15214       135  DOPC      H17R            5.9067416771       27.8187438380       -1.7608156074  MEMB      107             0.0000000000
     15215       135  DOPC      H17S            6.2618474291       26.3218409417       -0.8666676025  MEMB      107             0.0000000000
     15216       135  DOPC      C218            4.6862239008       26.1489995716       -2.3238233926  MEMB      107             0.0000000000
     15217       135  DOPC      H18R            4.5632504198       25.1123337558       -1.9592262468  MEMB      107             0.0000000000
     15218       135  DOPC      H18S            4.5025403491       26.1500204330       -3.4165569692  MEMB      107             0.0000000000
     15219       135  DOPC      H18T            3.9098012030       26.7885572282       -1.8751956323  MEMB      107             0.0000000000
     15220       135  DOPC      C33             6.7988907603       29.3509353799      -12.0997945586  MEMB      107             0.0000000000
     15221       135  DOPC      H3X             6.2244276774       30.1752915044      -12.5723640822  MEMB      107             0.0000000000
     15222       135  DOPC      H3Y             7.5399047837       28.9823815210      -12.8430754900  MEMB      107             0.0000000000
     15223       135  DOPC      C34             7.5098607193       29.8838880912      -10.8527410431  MEMB      107             0.0000000000
     15224       135  DOPC      H4X             8.0429338489       29.0113981039      -10.4216320835  MEMB      107             0.0000000000
     15225       135  DOPC      H4Y             6.7196292892       30.1911607629      -10.1357867931  MEMB      107             0.0000000000
     15226       135  DOPC      C35             8.4832587745       31.0671554702      -10.9827994095  MEMB      107             0.0000000000
     15227       135  DOPC      H5X             7.9423974516       31.9559081034      -11.3851126945  MEMB      107             0.0000000000
     15228       135  DOPC      H5Y             9.2963795273       30.8265991536      -11.7007770938  MEMB      107             0.0000000000
     15229       135  DOPC      C36             9.0792335387       31.4522229943       -9.6005387277  MEMB      107             0.0000000000
     15230       135  DOPC      H6X             9.8822731651       32.1967363111       -9.7532533581  MEMB      107             0.0000000000
     15231       135  DOPC      H6Y             8.2643114066       31.9494762440       -9.0399211243  MEMB      107             0.0000000000
     15232       135  DOPC      C37             9.5960272086       30.2540449889       -8.7628703081  MEMB      107             0.0000000000
     15233       135  DOPC      H7X             8.7529844424       29.5483388893       -8.5996826855  MEMB      107             0.0000000000
     15234       135  DOPC      H7Y            10.3492030565       29.7412148885       -9.3894353330  MEMB      107             0.0000000000
     15235       135  DOPC      C38            10.2011972512       30.4810591655       -7.3490598476  MEMB      107             0.0000000000
     15236       135  DOPC      H8X            11.2276575446       30.8746424131       -7.4073838946  MEMB      107             0.0000000000
     15237       135  DOPC      H8Y            10.3178456828       29.4691358594       -6.8954436398  MEMB      107             0.0000000000
     15238       135  DOPC      C39             9.3495017907       31.3215989707       -6.4385306391  MEMB      107             0.0000000000
     15239       135  DOPC      H9X             8.5642387761       31.8964221378       -6.9477757656  MEMB      107             0.0000000000
     15240       135  DOPC      C310            9.5459358654       31.6034691015       -5.1447735577  MEMB      107             0.0000000000
     15241       135  DOPC      H10X            8.7980193036       32.2562372903       -4.6762026035  MEMB      107             0.0000000000
     15242       135  DOPC      C311           10.6887431404       31.1599499669       -4.2552160373  MEMB      107             0.0000000000
     15243       135  DOPC      H11X           11.6452510438       31.2286067696       -4.8231543432  MEMB      107             0.0000000000
     15244       135  DOPC      H11Y           10.5643567052       30.0837246394       -4.0607204323  MEMB      107             0.0000000000
     15245       135  DOPC      C312           10.9441230180       31.8937481298       -2.8869872614  MEMB      107             0.0000000000
     15246       135  DOPC      H12X           11.8066258171       32.5830985920       -3.0413205330  MEMB      107             0.0000000000
     15247       135  DOPC      H12Y           11.3030825273       31.1622940434       -2.1353093817  MEMB      107             0.0000000000
     15248       135  DOPC      C313            9.7885737200       32.7441393077       -2.2941927299  MEMB      107             0.0000000000
     15249       135  DOPC      H13X           10.0870100865       33.7815627970       -2.5440472028  MEMB      107             0.0000000000
     15250       135  DOPC      H13Y            8.8166481989       32.5560151622       -2.7765241509  MEMB      107             0.0000000000
     15251       135  DOPC      C314            9.5360020634       32.7311492005       -0.7688987415  MEMB      107             0.0000000000
     15252       135  DOPC      H14X           10.0343655127       31.9147248408       -0.2156456305  MEMB      107             0.0000000000
     15253       135  DOPC      H14Y           10.0620782221       33.6458769281       -0.4512289932  MEMB      107             0.0000000000
     15254       135  DOPC      C315            8.0603861403       32.9192239874       -0.3234540126  MEMB      107             0.0000000000
     15255       135  DOPC      H15X            7.4221905345       33.2399566052       -1.1697173669  MEMB      107             0.0000000000
     15256       135  DOPC      H15Y            8.0898859759       33.7970824783        0.3673414907  MEMB      107             0.0000000000
     15257       135  DOPC      C316            7.3677458127       31.7744383103        0.4646638131  MEMB      107             0.0000000000
     15258       135  DOPC      H16X            8.0738493185       31.2457962398        1.1383026211  MEMB      107             0.0000000000
     15259       135  DOPC      H16Y            6.6141237254       32.2678346439        1.1178635545  MEMB      107             0.0000000000
     15260       135  DOPC      C317            6.5333665210       30.7588301649       -0.3336428090  MEMB      107             0.0000000000
     15261       135  DOPC      H17X            6.1750478022       31.2091591155       -1.2849782081  MEMB      107             0.0000000000
     15262       135  DOPC      H17Y            7.1774954722       29.9136737109       -0.5992233097  MEMB      107             0.0000000000
     15263       135  DOPC      C318            5.3689205424       30.1571767899        0.4585967842  MEMB      107             0.0000000000
     15264       135  DOPC      H18X            4.7461403719       29.4867431183       -0.1746866729  MEMB      107             0.0000000000
     15265       135  DOPC      H18Y            5.7574105714       29.5657267906        1.3156863135  MEMB      107             0.0000000000
     15266       135  DOPC      H18Z            4.7314020852       30.9749668773        0.8443096571  MEMB      107             0.0000000000
     15267       136  DOPC      N             -26.7908079384      -17.0246662925      -19.0080956594  MEMB      108             0.0000000000
     15268       136  DOPC      C12           -28.2858271915      -17.2495350623      -18.7775844868  MEMB      108             0.0000000000
     15269       136  DOPC      H12A          -28.8624660586      -16.4536326238      -19.2282105238  MEMB      108             0.0000000000
     15270       136  DOPC      H12B          -28.4806914366      -17.2546806978      -17.7064506498  MEMB      108             0.0000000000
     15271       136  DOPC      C13           -26.4025865659      -17.4958537795      -20.3813096162  MEMB      108             0.0000000000
     15272       136  DOPC      H13A          -27.0420305253      -17.0920332218      -21.1514083714  MEMB      108             0.0000000000
     15273       136  DOPC      H13B          -25.3749453634      -17.2754388988      -20.6195045614  MEMB      108             0.0000000000
     15274       136  DOPC      H13C          -26.4944333437      -18.5880125670      -20.3771672509  MEMB      108             0.0000000000
     15275       136  DOPC      C14           -25.9953209317      -17.9114022185      -18.1157095423  MEMB      108             0.0000000000
     15276       136  DOPC      H14A          -26.1014983978      -18.9449236490      -18.4529393568  MEMB      108             0.0000000000
     15277       136  DOPC      H14B          -24.9407803191      -17.6539496835      -18.1623301012  MEMB      108             0.0000000000
     15278       136  DOPC      H14C          -26.3110478864      -17.8514396309      -17.0850627825  MEMB      108             0.0000000000
     15279       136  DOPC      C15           -26.3281640994      -15.6142341215      -18.8079423700  MEMB      108             0.0000000000
     15280       136  DOPC      H15A          -26.4691997976      -15.3139560891      -17.7817337158  MEMB      108             0.0000000000
     15281       136  DOPC      H15B          -26.8553953613      -14.9464941779      -19.4736712833  MEMB      108             0.0000000000
     15282       136  DOPC      H15C          -25.2547634548      -15.5415854444      -19.0036479520  MEMB      108             0.0000000000
     15283       136  DOPC      C11           -28.8977606302      -18.5734328723      -19.2982620967  MEMB      108             0.0000000000
     15284       136  DOPC      H11A          -30.0013374106      -18.5431697252      -19.1723099983  MEMB      108             0.0000000000
     15285       136  DOPC      H11B          -28.7249207710      -18.6733155678      -20.3986755574  MEMB      108             0.0000000000
     15286       136  DOPC      P             -27.8236245295      -20.9343935926      -19.2816048100  MEMB      108             0.0000000000
     15287       136  DOPC      O13           -26.5695455150      -20.5241508147      -19.9853513176  MEMB      108             0.0000000000
     15288       136  DOPC      O14           -28.8750209449      -21.5330046802      -20.1186154770  MEMB      108             0.0000000000
     15289       136  DOPC      O12           -28.3944931262      -19.6605517122      -18.5307139276  MEMB      108             0.0000000000
     15290       136  DOPC      O11           -27.4777622329      -21.9303103465      -18.1213517987  MEMB      108             0.0000000000
     15291       136  DOPC      C1            -26.7525300749      -21.5808750968      -16.9564820187  MEMB      108             0.0000000000
     15292       136  DOPC      HA            -27.0262007920      -20.5757145169      -16.5575996127  MEMB      108             0.0000000000
     15293       136  DOPC      HB            -25.6870011928      -21.5850169141      -17.2496215316  MEMB      108             0.0000000000
     15294       136  DOPC      C2            -26.9801112334      -22.6328594798      -15.8318406505  MEMB      108             0.0000000000
     15295       136  DOPC      HS            -27.2545567629      -23.5924462611      -16.3399889513  MEMB      108             0.0000000000
     15296       136  DOPC      O21           -27.9617773404      -22.1534468949      -14.8863040862  MEMB      108             0.0000000000
     15297       136  DOPC      C21           -29.1145301471      -22.7742444607      -14.9521270480  MEMB      108             0.0000000000
     15298       136  DOPC      O22           -29.4188225582      -23.6446619066      -15.7416028410  MEMB      108             0.0000000000
     15299       136  DOPC      C22           -30.0184398894      -22.2895158491      -13.8203278377  MEMB      108             0.0000000000
     15300       136  DOPC      H2R           -31.0626332498      -22.4572271862      -14.1567015296  MEMB      108             0.0000000000
     15301       136  DOPC      H2S           -29.8623355617      -21.2070293309      -13.6807114112  MEMB      108             0.0000000000
     15302       136  DOPC      C3            -25.7172469224      -22.9382172007      -14.9908794174  MEMB      108             0.0000000000
     15303       136  DOPC      HX            -24.9178154637      -23.3777251906      -15.6301918288  MEMB      108             0.0000000000
     15304       136  DOPC      HY            -25.9660367566      -23.7068635476      -14.2395795021  MEMB      108             0.0000000000
     15305       136  DOPC      O31           -25.3216138280      -21.7730808996      -14.2520672427  MEMB      108             0.0000000000
     15306       136  DOPC      C31           -24.4757520959      -21.0124154313      -14.8907433927  MEMB      108             0.0000000000
     15307       136  DOPC      O32           -23.8778657681      -21.3113146404      -15.9134693160  MEMB      108             0.0000000000
     15308       136  DOPC      C32           -24.3762689358      -19.6942862764      -14.1887857367  MEMB      108             0.0000000000
     15309       136  DOPC      H2X           -24.8017986600      -19.7733620536      -13.1670398706  MEMB      108             0.0000000000
     15310       136  DOPC      H2Y           -23.2993934964      -19.4326409161      -14.1156242972  MEMB      108             0.0000000000
     15311       136  DOPC      C23           -29.7936906290      -23.0126460919      -12.4780367214  MEMB      108             0.0000000000
     15312       136  DOPC      H3R           -29.6714601325      -24.1047387428      -12.6043201210  MEMB      108             0.0000000000
     15313       136  DOPC      H3S           -30.7296160124      -22.8806679789      -11.8872972737  MEMB      108             0.0000000000
     15314       136  DOPC      C24           -28.6521738376      -22.4223993955      -11.6381489671  MEMB      108             0.0000000000
     15315       136  DOPC      H4R           -28.6306412230      -21.3199676820      -11.7900849258  MEMB      108             0.0000000000
     15316       136  DOPC      H4S           -27.6649745322      -22.8215647149      -11.9559579637  MEMB      108             0.0000000000
     15317       136  DOPC      C25           -28.9056687760      -22.6891665531      -10.1487699398  MEMB      108             0.0000000000
     15318       136  DOPC      H5R           -28.7671955089      -23.7686309512       -9.9281478919  MEMB      108             0.0000000000
     15319       136  DOPC      H5S           -29.9784353675      -22.4454573684       -9.9602187076  MEMB      108             0.0000000000
     15320       136  DOPC      C26           -28.0803956719      -21.8130016480       -9.1963407628  MEMB      108             0.0000000000
     15321       136  DOPC      H6R           -28.5954605716      -21.7911600738       -8.2076444543  MEMB      108             0.0000000000
     15322       136  DOPC      H6S           -28.0722974308      -20.7738588605       -9.5844244692  MEMB      108             0.0000000000
     15323       136  DOPC      C27           -26.6366614528      -22.2856977197       -8.9768181724  MEMB      108             0.0000000000
     15324       136  DOPC      H7R           -26.1045790059      -21.4988866689       -8.3937997759  MEMB      108             0.0000000000
     15325       136  DOPC      H7S           -26.1220492684      -22.3786414271       -9.9577182757  MEMB      108             0.0000000000
     15326       136  DOPC      C28           -26.5752629246      -23.6259814530       -8.2192201425  MEMB      108             0.0000000000
     15327       136  DOPC      H8R           -26.9418533132      -24.4305961940       -8.8941261690  MEMB      108             0.0000000000
     15328       136  DOPC      H8S           -27.3031275249      -23.5777106886       -7.3776914945  MEMB      108             0.0000000000
     15329       136  DOPC      C29           -25.2105211296      -23.9965156573       -7.6947198875  MEMB      108             0.0000000000
     15330       136  DOPC      H9R           -24.6133849782      -24.6511184567       -8.3430943935  MEMB      108             0.0000000000
     15331       136  DOPC      C210          -24.6495968948      -23.5398723232       -6.5640927663  MEMB      108             0.0000000000
     15332       136  DOPC      H10R          -23.6659717017      -23.9375980702       -6.2629106287  MEMB      108             0.0000000000
     15333       136  DOPC      C211          -25.2817552519      -22.5608434980       -5.6060577860  MEMB      108             0.0000000000
     15334       136  DOPC      H11R          -25.3654682642      -23.0087593616       -4.5935598433  MEMB      108             0.0000000000
     15335       136  DOPC      H11S          -26.3211456211      -22.3040503880       -5.9106957977  MEMB      108             0.0000000000
     15336       136  DOPC      C212          -24.5006255797      -21.2273870479       -5.5401844093  MEMB      108             0.0000000000
     15337       136  DOPC      H12R          -25.0359235323      -20.5397825153       -4.8478594162  MEMB      108             0.0000000000
     15338       136  DOPC      H12S          -24.5100162594      -20.7613090502       -6.5527953909  MEMB      108             0.0000000000
     15339       136  DOPC      C213          -23.0377042372      -21.3478065315       -5.0795497276  MEMB      108             0.0000000000
     15340       136  DOPC      H13R          -22.5026538450      -20.3871204197       -5.1873884387  MEMB      108             0.0000000000
     15341       136  DOPC      H13S          -22.5239195870      -22.0600993172       -5.7674084720  MEMB      108             0.0000000000
     15342       136  DOPC      C214          -22.8733174324      -21.8794330916       -3.6496038590  MEMB      108             0.0000000000
     15343       136  DOPC      H14R          -21.8276093885      -22.2487730434       -3.5688336713  MEMB      108             0.0000000000
     15344       136  DOPC      H14S          -23.5680879513      -22.7377300351       -3.5471691592  MEMB      108             0.0000000000
     15345       136  DOPC      C215          -23.1240155119      -20.9385994881       -2.4560343187  MEMB      108             0.0000000000
     15346       136  DOPC      H15R          -24.1309881799      -20.4828148983       -2.5572736671  MEMB      108             0.0000000000
     15347       136  DOPC      H15S          -22.3698890270      -20.1190530048       -2.4790773012  MEMB      108             0.0000000000
     15348       136  DOPC      C216          -23.0207854556      -21.6670367893       -1.0899835327  MEMB      108             0.0000000000
     15349       136  DOPC      H16R          -22.0004219091      -21.4886700391       -0.6786420674  MEMB      108             0.0000000000
     15350       136  DOPC      H16S          -23.1332282748      -22.7666305108       -1.2052353726  MEMB      108             0.0000000000
     15351       136  DOPC      C217          -24.0522531435      -21.2315315197       -0.0348566908  MEMB      108             0.0000000000
     15352       136  DOPC      H17R          -24.4502945651      -20.2297310762       -0.2969447034  MEMB      108             0.0000000000
     15353       136  DOPC      H17S          -23.5226702824      -21.1186075590        0.9314701897  MEMB      108             0.0000000000
     15354       136  DOPC      C218          -25.1890041458      -22.2344771613        0.2117536519  MEMB      108             0.0000000000
     15355       136  DOPC      H18R          -24.7958453221      -23.1675793491        0.6555806845  MEMB      108             0.0000000000
     15356       136  DOPC      H18S          -25.7295925200      -22.4678923945       -0.7301415163  MEMB      108             0.0000000000
     15357       136  DOPC      H18T          -25.9196924317      -21.8494167547        0.9524248155  MEMB      108             0.0000000000
     15358       136  DOPC      C33           -25.1091371911      -18.6559549762      -15.0396567284  MEMB      108             0.0000000000
     15359       136  DOPC      H3X           -26.2095332961      -18.8357637574      -15.0472232123  MEMB      108             0.0000000000
     15360       136  DOPC      H3Y           -24.7303555574      -18.7355458751      -16.0843777847  MEMB      108             0.0000000000
     15361       136  DOPC      C34           -24.7983046945      -17.2536070412      -14.5479845740  MEMB      108             0.0000000000
     15362       136  DOPC      H4X           -25.3208636184      -16.5174823899      -15.1977952589  MEMB      108             0.0000000000
     15363       136  DOPC      H4Y           -23.7011907390      -17.0978471883      -14.6671589431  MEMB      108             0.0000000000
     15364       136  DOPC      C35           -25.1640364279      -17.0449940983      -13.0818005173  MEMB      108             0.0000000000
     15365       136  DOPC      H5X           -24.9457312216      -15.9893121333      -12.8046217066  MEMB      108             0.0000000000
     15366       136  DOPC      H5Y           -24.5222908232      -17.6936674240      -12.4503284526  MEMB      108             0.0000000000
     15367       136  DOPC      C36           -26.6268314974      -17.3853208554      -12.7936488700  MEMB      108             0.0000000000
     15368       136  DOPC      H6X           -27.2257597141      -17.0385737508      -13.6675300288  MEMB      108             0.0000000000
     15369       136  DOPC      H6Y           -26.7645361918      -18.4863489735      -12.7153153511  MEMB      108             0.0000000000
     15370       136  DOPC      C37           -27.1530690791      -16.6876014557      -11.5360484120  MEMB      108             0.0000000000
     15371       136  DOPC      H7X           -26.7570165962      -15.6510152334      -11.5300286463  MEMB      108             0.0000000000
     15372       136  DOPC      H7Y           -28.2420042974      -16.5621408754      -11.6440089527  MEMB      108             0.0000000000
     15373       136  DOPC      C38           -26.7804497490      -17.3548284503      -10.1936795169  MEMB      108             0.0000000000
     15374       136  DOPC      H8X           -26.1843512432      -16.6143762906       -9.6285564428  MEMB      108             0.0000000000
     15375       136  DOPC      H8Y           -26.1289738908      -18.2309285996      -10.4021103523  MEMB      108             0.0000000000
     15376       136  DOPC      C39           -27.9414717416      -17.7888481197       -9.3466963969  MEMB      108             0.0000000000
     15377       136  DOPC      H9X           -28.3693261275      -18.7411385507       -9.6650531445  MEMB      108             0.0000000000
     15378       136  DOPC      C310          -28.5025959512      -17.1556475517       -8.3004511373  MEMB      108             0.0000000000
     15379       136  DOPC      H10X          -29.4782477423      -17.5330930316       -7.9751069019  MEMB      108             0.0000000000
     15380       136  DOPC      C311          -28.1221134454      -15.8288860942       -7.6884870107  MEMB      108             0.0000000000
     15381       136  DOPC      H11X          -28.9874694357      -15.1586135701       -7.8941311877  MEMB      108             0.0000000000
     15382       136  DOPC      H11Y          -27.2527378853      -15.3879683992       -8.2194285995  MEMB      108             0.0000000000
     15383       136  DOPC      C312          -27.8568716272      -15.7055553186       -6.1553852936  MEMB      108             0.0000000000
     15384       136  DOPC      H12X          -28.7065554985      -16.1071281314       -5.5716893334  MEMB      108             0.0000000000
     15385       136  DOPC      H12Y          -27.7988704880      -14.6146312837       -5.9371035700  MEMB      108             0.0000000000
     15386       136  DOPC      C313          -26.5467789732      -16.3148552702       -5.6260515570  MEMB      108             0.0000000000
     15387       136  DOPC      H13X          -26.4160589326      -17.3381628571       -6.0339249374  MEMB      108             0.0000000000
     15388       136  DOPC      H13Y          -25.7127986514      -15.6738551474       -5.9940236590  MEMB      108             0.0000000000
     15389       136  DOPC      C314          -26.4030692368      -16.3566324302       -4.0880690245  MEMB      108             0.0000000000
     15390       136  DOPC      H14X          -25.3237774234      -16.5227949980       -3.8565558721  MEMB      108             0.0000000000
     15391       136  DOPC      H14Y          -26.6749023226      -15.3627623825       -3.6798339730  MEMB      108             0.0000000000
     15392       136  DOPC      C315          -27.1946360854      -17.4759461119       -3.3880098123  MEMB      108             0.0000000000
     15393       136  DOPC      H15X          -27.1432161803      -18.3837055935       -4.0283306746  MEMB      108             0.0000000000
     15394       136  DOPC      H15Y          -28.2641179051      -17.1802387393       -3.2968502167  MEMB      108             0.0000000000
     15395       136  DOPC      C316          -26.6519877152      -17.8475301515       -1.9942967709  MEMB      108             0.0000000000
     15396       136  DOPC      H16X          -25.5476215344      -17.9793721631       -2.0280773443  MEMB      108             0.0000000000
     15397       136  DOPC      H16Y          -26.8659848523      -17.0194016687       -1.2886327303  MEMB      108             0.0000000000
     15398       136  DOPC      C317          -27.2856931935      -19.1103133554       -1.3946318799  MEMB      108             0.0000000000
     15399       136  DOPC      H17X          -28.3710771678      -19.1134373541       -1.6447987133  MEMB      108             0.0000000000
     15400       136  DOPC      H17Y          -26.8373086114      -20.0123332371       -1.8706927742  MEMB      108             0.0000000000
     15401       136  DOPC      C318          -27.1288734660      -19.1788811104        0.1293875557  MEMB      108             0.0000000000
     15402       136  DOPC      H18X          -26.7135114291      -18.2335524875        0.5361984274  MEMB      108             0.0000000000
     15403       136  DOPC      H18Y          -28.1033459107      -19.3821132769        0.6207394670  MEMB      108             0.0000000000
     15404       136  DOPC      H18Z          -26.4413360033      -19.9847037364        0.4238542699  MEMB      108             0.0000000000
     15405       137  DOPC      N              22.3823718440      -27.3786116795      -20.4455772760  MEMB      109             0.0000000000
     15406       137  DOPC      C12            20.9974973271      -27.9265997514      -20.8462312098  MEMB      109             0.0000000000
     15407       137  DOPC      H12A           20.7961792770      -28.7742566079      -20.1929564410  MEMB      109             0.0000000000
     15408       137  DOPC      H12B           21.0203535521      -28.2830640331      -21.8682639891  MEMB      109             0.0000000000
     15409       137  DOPC      C13            22.6226281946      -26.0099550694      -21.0209111641  MEMB      109             0.0000000000
     15410       137  DOPC      H13A           22.6491950653      -25.9971715984      -22.1078080165  MEMB      109             0.0000000000
     15411       137  DOPC      H13B           21.8211113702      -25.3402679520      -20.7076187077  MEMB      109             0.0000000000
     15412       137  DOPC      H13C           23.5611400958      -25.5906461260      -20.6749038995  MEMB      109             0.0000000000
     15413       137  DOPC      C14            23.4145539845      -28.3413632626      -20.9547604830  MEMB      109             0.0000000000
     15414       137  DOPC      H14A           23.3558500406      -28.3911745295      -22.0414361089  MEMB      109             0.0000000000
     15415       137  DOPC      H14B           24.4130003988      -28.0074347180      -20.7196244222  MEMB      109             0.0000000000
     15416       137  DOPC      H14C           23.2327364482      -29.3225510357      -20.5409083988  MEMB      109             0.0000000000
     15417       137  DOPC      C15            22.4649852141      -27.3368663627      -18.9511382390  MEMB      109             0.0000000000
     15418       137  DOPC      H15A           22.0330461894      -28.2470601325      -18.5282397825  MEMB      109             0.0000000000
     15419       137  DOPC      H15B           21.7861249004      -26.5759987357      -18.5536792279  MEMB      109             0.0000000000
     15420       137  DOPC      H15C           23.4381380791      -27.1864712632      -18.5305467026  MEMB      109             0.0000000000
     15421       137  DOPC      C11            19.7122821008      -27.0742774448      -20.6859836600  MEMB      109             0.0000000000
     15422       137  DOPC      H11A           19.8214368832      -26.1143455832      -21.2373086597  MEMB      109             0.0000000000
     15423       137  DOPC      H11B           18.8559866785      -27.6195806058      -21.1553660005  MEMB      109             0.0000000000
     15424       137  DOPC      P              19.1284596167      -27.8527297404      -18.1859892913  MEMB      109             0.0000000000
     15425       137  DOPC      O13            20.3041911410      -28.7577152286      -18.0585552146  MEMB      109             0.0000000000
     15426       137  DOPC      O14            17.8188885046      -28.4538092161      -18.5047232178  MEMB      109             0.0000000000
     15427       137  DOPC      O12            19.4289069365      -26.7944833666      -19.3300591749  MEMB      109             0.0000000000
     15428       137  DOPC      O11            19.0558785783      -26.8784901574      -16.9249502541  MEMB      109             0.0000000000
     15429       137  DOPC      C1             19.7412909462      -25.6009991175      -16.9317598902  MEMB      109             0.0000000000
     15430       137  DOPC      HA             18.9671376798      -24.7993987555      -16.9258764351  MEMB      109             0.0000000000
     15431       137  DOPC      HB             20.3672315001      -25.4188095316      -17.8396259014  MEMB      109             0.0000000000
     15432       137  DOPC      C2             20.6970398419      -25.3144760529      -15.7111605365  MEMB      109             0.0000000000
     15433       137  DOPC      HS             21.0031995324      -24.2464623137      -15.8212428474  MEMB      109             0.0000000000
     15434       137  DOPC      O21            21.8678055291      -26.1708551852      -15.7285964216  MEMB      109             0.0000000000
     15435       137  DOPC      C21            22.7673347903      -25.9033313107      -14.7793712790  MEMB      109             0.0000000000
     15436       137  DOPC      O22            22.9036866534      -24.8227851569      -14.2373291245  MEMB      109             0.0000000000
     15437       137  DOPC      C22            23.6162418149      -27.1548889713      -14.4968841084  MEMB      109             0.0000000000
     15438       137  DOPC      H2R            23.6958277917      -27.7165268248      -15.4501726725  MEMB      109             0.0000000000
     15439       137  DOPC      H2S            23.0615501636      -27.7846147336      -13.7720210763  MEMB      109             0.0000000000
     15440       137  DOPC      C3             19.9636647935      -25.4714274965      -14.3398296396  MEMB      109             0.0000000000
     15441       137  DOPC      HX             18.9624236587      -24.9931553859      -14.4177183113  MEMB      109             0.0000000000
     15442       137  DOPC      HY             20.5525558199      -24.9121366579      -13.5840698763  MEMB      109             0.0000000000
     15443       137  DOPC      O31            19.8514517262      -26.8598415239      -13.9719993918  MEMB      109             0.0000000000
     15444       137  DOPC      C31            19.7699561847      -27.1511918198      -12.6887054647  MEMB      109             0.0000000000
     15445       137  DOPC      O32            19.6588183691      -26.3512707566      -11.7770446263  MEMB      109             0.0000000000
     15446       137  DOPC      C32            19.8083646370      -28.6934216411      -12.5432095754  MEMB      109             0.0000000000
     15447       137  DOPC      H2X            19.0241926053      -29.1114970831      -13.2051628621  MEMB      109             0.0000000000
     15448       137  DOPC      H2Y            20.7929177623      -29.0432641906      -12.9195011622  MEMB      109             0.0000000000
     15449       137  DOPC      C23            25.0515766657      -26.8690978302      -13.9679488098  MEMB      109             0.0000000000
     15450       137  DOPC      H3R            25.5936204467      -26.2130323087      -14.6891890259  MEMB      109             0.0000000000
     15451       137  DOPC      H3S            25.6061680685      -27.8356564633      -13.9325437292  MEMB      109             0.0000000000
     15452       137  DOPC      C24            25.1550766647      -26.2269499898      -12.5670272018  MEMB      109             0.0000000000
     15453       137  DOPC      H4R            24.8063636963      -25.1720383242      -12.6280647273  MEMB      109             0.0000000000
     15454       137  DOPC      H4S            26.2295446821      -26.1926903092      -12.2720676176  MEMB      109             0.0000000000
     15455       137  DOPC      C25            24.3529906570      -26.8831679376      -11.4305092785  MEMB      109             0.0000000000
     15456       137  DOPC      H5R            24.6506088712      -27.9474847862      -11.3210333511  MEMB      109             0.0000000000
     15457       137  DOPC      H5S            23.2706448991      -26.8451664393      -11.6817363799  MEMB      109             0.0000000000
     15458       137  DOPC      C26            24.5878540148      -26.1396799499      -10.1009623340  MEMB      109             0.0000000000
     15459       137  DOPC      H6R            24.3244264271      -25.0646485182      -10.2305693144  MEMB      109             0.0000000000
     15460       137  DOPC      H6S            25.6775359957      -26.1742487020       -9.8701501956  MEMB      109             0.0000000000
     15461       137  DOPC      C27            23.8281001647      -26.6993209260       -8.8807914230  MEMB      109             0.0000000000
     15462       137  DOPC      H7R            24.0896986470      -26.0765662100       -7.9940895530  MEMB      109             0.0000000000
     15463       137  DOPC      H7S            24.1790738990      -27.7360051689       -8.6821877891  MEMB      109             0.0000000000
     15464       137  DOPC      C28            22.2928292127      -26.7257137277       -8.9904659884  MEMB      109             0.0000000000
     15465       137  DOPC      H8R            21.8918726701      -26.9581202151       -7.9807855750  MEMB      109             0.0000000000
     15466       137  DOPC      H8S            21.9920366679      -27.5610726023       -9.6591544118  MEMB      109             0.0000000000
     15467       137  DOPC      C29            21.6962639830      -25.4460495094       -9.5002815976  MEMB      109             0.0000000000
     15468       137  DOPC      H9R            21.5644280536      -25.4151459335      -10.5951833151  MEMB      109             0.0000000000
     15469       137  DOPC      C210           21.2901175570      -24.3882465580       -8.7796979259  MEMB      109             0.0000000000
     15470       137  DOPC      H10R           20.7930335028      -23.5837330788       -9.3307980911  MEMB      109             0.0000000000
     15471       137  DOPC      C211           21.3045267982      -24.1641238153       -7.2840540733  MEMB      109             0.0000000000
     15472       137  DOPC      H11R           22.2366557702      -23.6209107930       -7.0028609153  MEMB      109             0.0000000000
     15473       137  DOPC      H11S           21.3138624595      -25.1254461599       -6.7335803343  MEMB      109             0.0000000000
     15474       137  DOPC      C212           20.0938310439      -23.2833276466       -6.8769135049  MEMB      109             0.0000000000
     15475       137  DOPC      H12R           19.4033704509      -23.2124297582       -7.7500231617  MEMB      109             0.0000000000
     15476       137  DOPC      H12S           20.4328144699      -22.2458353976       -6.6658901984  MEMB      109             0.0000000000
     15477       137  DOPC      C213           19.1022755129      -23.7743601836       -5.8034114723  MEMB      109             0.0000000000
     15478       137  DOPC      H13R           18.2271893024      -24.1852323330       -6.3575918885  MEMB      109             0.0000000000
     15479       137  DOPC      H13S           18.6990010179      -22.9283656007       -5.2224483743  MEMB      109             0.0000000000
     15480       137  DOPC      C214           19.5181104722      -24.8304676916       -4.7890420692  MEMB      109             0.0000000000
     15481       137  DOPC      H14R           20.4570495382      -24.5539988894       -4.2603075485  MEMB      109             0.0000000000
     15482       137  DOPC      H14S           19.7114221813      -25.7722585718       -5.3418062239  MEMB      109             0.0000000000
     15483       137  DOPC      C215           18.3868605063      -25.0563602306       -3.7621396515  MEMB      109             0.0000000000
     15484       137  DOPC      H15R           18.4707464812      -24.2543555968       -2.9961262475  MEMB      109             0.0000000000
     15485       137  DOPC      H15S           18.5867788401      -26.0203853203       -3.2508330959  MEMB      109             0.0000000000
     15486       137  DOPC      C216           16.9339023402      -25.0535018954       -4.3235733416  MEMB      109             0.0000000000
     15487       137  DOPC      H16R           16.8316884052      -25.7239443666       -5.2013360573  MEMB      109             0.0000000000
     15488       137  DOPC      H16S           16.7047504474      -24.0309506490       -4.6988474843  MEMB      109             0.0000000000
     15489       137  DOPC      C217           15.8494976643      -25.4315232640       -3.2994753265  MEMB      109             0.0000000000
     15490       137  DOPC      H17R           15.4295485598      -26.4481553553       -3.4069613626  MEMB      109             0.0000000000
     15491       137  DOPC      H17S           14.9677573532      -24.8117499709       -3.4959354492  MEMB      109             0.0000000000
     15492       137  DOPC      C218           16.2916081374      -25.2210262267       -1.8677923460  MEMB      109             0.0000000000
     15493       137  DOPC      H18R           16.6298988713      -24.1839058721       -1.7173248441  MEMB      109             0.0000000000
     15494       137  DOPC      H18S           17.1308973541      -25.8988834590       -1.6241949826  MEMB      109             0.0000000000
     15495       137  DOPC      H18T           15.4587108743      -25.4381456216       -1.1801844172  MEMB      109             0.0000000000
     15496       137  DOPC      C33            19.6202978929      -29.1839463024      -11.0813483691  MEMB      109             0.0000000000
     15497       137  DOPC      H3X            19.0914637631      -28.3938811583      -10.5158729851  MEMB      109             0.0000000000
     15498       137  DOPC      H3Y            20.6142175432      -29.2954022973      -10.5939834612  MEMB      109             0.0000000000
     15499       137  DOPC      C34            18.8283399176      -30.4993953306      -10.8669324518  MEMB      109             0.0000000000
     15500       137  DOPC      H4X            19.5875081948      -31.2473491222      -10.5993401358  MEMB      109             0.0000000000
     15501       137  DOPC      H4Y            18.3354638354      -30.8198435761      -11.8117520051  MEMB      109             0.0000000000
     15502       137  DOPC      C35            17.8044268677      -30.3649390844       -9.7143409801  MEMB      109             0.0000000000
     15503       137  DOPC      H5X            16.8256336379      -30.0692263312      -10.1389251147  MEMB      109             0.0000000000
     15504       137  DOPC      H5Y            18.1882656959      -29.5105125587       -9.1210576235  MEMB      109             0.0000000000
     15505       137  DOPC      C36            17.5830078740      -31.4241986271       -8.6026803377  MEMB      109             0.0000000000
     15506       137  DOPC      H6X            16.6082504387      -31.1234807083       -8.1409481755  MEMB      109             0.0000000000
     15507       137  DOPC      H6Y            17.3927119768      -32.4293729215       -8.9896136761  MEMB      109             0.0000000000
     15508       137  DOPC      C37            18.6059431892      -31.2765275034       -7.4500527315  MEMB      109             0.0000000000
     15509       137  DOPC      H7X            19.4275356284      -30.6535125337       -7.8754100646  MEMB      109             0.0000000000
     15510       137  DOPC      H7Y            18.1007056758      -30.7024016630       -6.6437668127  MEMB      109             0.0000000000
     15511       137  DOPC      C38            19.3541626672      -32.4549368382       -6.7841479350  MEMB      109             0.0000000000
     15512       137  DOPC      H8X            20.2909953881      -32.0118462369       -6.3731976813  MEMB      109             0.0000000000
     15513       137  DOPC      H8Y            19.6866498842      -33.1754192874       -7.5307514143  MEMB      109             0.0000000000
     15514       137  DOPC      C39            18.7137719764      -33.2453847674       -5.6872243682  MEMB      109             0.0000000000
     15515       137  DOPC      H9X            18.2178117716      -34.1595164109       -6.0293050969  MEMB      109             0.0000000000
     15516       137  DOPC      C310           18.7174458161      -32.9837707418       -4.3731373584  MEMB      109             0.0000000000
     15517       137  DOPC      H10X           18.1042322750      -33.6395878435       -3.7475849779  MEMB      109             0.0000000000
     15518       137  DOPC      C311           19.3439192015      -31.8260568852       -3.6398436345  MEMB      109             0.0000000000
     15519       137  DOPC      H11X           18.7834501041      -31.7421808723       -2.6815717390  MEMB      109             0.0000000000
     15520       137  DOPC      H11Y           19.1420749881      -30.9075290862       -4.2228625052  MEMB      109             0.0000000000
     15521       137  DOPC      C312           20.7911140912      -31.7061149504       -3.1277103775  MEMB      109             0.0000000000
     15522       137  DOPC      H12X           21.5354162473      -31.8337652681       -3.9388577476  MEMB      109             0.0000000000
     15523       137  DOPC      H12Y           20.9299081807      -32.4974674831       -2.3620870622  MEMB      109             0.0000000000
     15524       137  DOPC      C313           20.9921917537      -30.3680157908       -2.3976209168  MEMB      109             0.0000000000
     15525       137  DOPC      H13X           20.0355316054      -29.8156180544       -2.4723805006  MEMB      109             0.0000000000
     15526       137  DOPC      H13Y           21.1827232478      -30.5380567333       -1.3148121481  MEMB      109             0.0000000000
     15527       137  DOPC      C314           22.0677773136      -29.4592095911       -2.9968683813  MEMB      109             0.0000000000
     15528       137  DOPC      H14X           22.9667896465      -30.0638498260       -3.2518346021  MEMB      109             0.0000000000
     15529       137  DOPC      H14Y           21.6624671523      -29.0392023164       -3.9441051439  MEMB      109             0.0000000000
     15530       137  DOPC      C315           22.4895943532      -28.3180250071       -2.0541075675  MEMB      109             0.0000000000
     15531       137  DOPC      H15X           23.4042623239      -27.8449272734       -2.4831355168  MEMB      109             0.0000000000
     15532       137  DOPC      H15Y           22.7772626105      -28.7223040116       -1.0578181184  MEMB      109             0.0000000000
     15533       137  DOPC      C316           21.4407156311      -27.2039444647       -1.8838552417  MEMB      109             0.0000000000
     15534       137  DOPC      H16X           21.9666456626      -26.3209852203       -1.4535978215  MEMB      109             0.0000000000
     15535       137  DOPC      H16Y           21.0548237262      -26.8994842913       -2.8814448670  MEMB      109             0.0000000000
     15536       137  DOPC      C317           20.2629550327      -27.5386790170       -0.9553227265  MEMB      109             0.0000000000
     15537       137  DOPC      H17X           19.4955161651      -28.1129257539       -1.5141641076  MEMB      109             0.0000000000
     15538       137  DOPC      H17Y           20.6200502832      -28.1733021128       -0.1126596123  MEMB      109             0.0000000000
     15539       137  DOPC      C318           19.5881942907      -26.2964221113       -0.3855784010  MEMB      109             0.0000000000
     15540       137  DOPC      H18X           19.1893196562      -25.6542378944       -1.1939341038  MEMB      109             0.0000000000
     15541       137  DOPC      H18Y           18.7729755226      -26.5634144589        0.3150498832  MEMB      109             0.0000000000
     15542       137  DOPC      H18Z           20.3194757237      -25.6978150917        0.1718900051  MEMB      109             0.0000000000
     15543       138  DOPC      N              29.0714089514      -20.8345282928      -20.2229792362  MEMB      110             0.0000000000
     15544       138  DOPC      C12            27.6457708635      -20.3068072376      -20.0885997298  MEMB      110             0.0000000000
     15545       138  DOPC      H12A           26.9883097383      -20.9663433276      -20.6543379885  MEMB      110             0.0000000000
     15546       138  DOPC      H12B           27.6240458250      -19.3369784617      -20.5885144629  MEMB      110             0.0000000000
     15547       138  DOPC      C13            30.0114223742      -19.9421363969      -19.4737332636  MEMB      110             0.0000000000
     15548       138  DOPC      H13A           29.6068219057      -19.7624296362      -18.4891919936  MEMB      110             0.0000000000
     15549       138  DOPC      H13B           31.0288047429      -20.2880982106      -19.4379722877  MEMB      110             0.0000000000
     15550       138  DOPC      H13C           30.0626675038      -18.9773236359      -19.9756068040  MEMB      110             0.0000000000
     15551       138  DOPC      C14            29.3807415282      -20.8111910826      -21.6893578571  MEMB      110             0.0000000000
     15552       138  DOPC      H14A           30.4158838795      -21.0277574717      -21.9052754810  MEMB      110             0.0000000000
     15553       138  DOPC      H14B           28.7649180337      -21.5415891387      -22.2102912781  MEMB      110             0.0000000000
     15554       138  DOPC      H14C           29.1618038128      -19.8313896894      -22.1086480441  MEMB      110             0.0000000000
     15555       138  DOPC      C15            29.1275627580      -22.2179727500      -19.6938384039  MEMB      110             0.0000000000
     15556       138  DOPC      H15A           28.4687373561      -22.8719773708      -20.2726101190  MEMB      110             0.0000000000
     15557       138  DOPC      H15B           28.6597129315      -22.2134913768      -18.7020257975  MEMB      110             0.0000000000
     15558       138  DOPC      H15C           30.1080520285      -22.6268975140      -19.6551933177  MEMB      110             0.0000000000
     15559       138  DOPC      C11            27.0283537310      -20.1467445330      -18.6702884655  MEMB      110             0.0000000000
     15560       138  DOPC      H11A           27.6093583015      -19.3838096816      -18.1085586060  MEMB      110             0.0000000000
     15561       138  DOPC      H11B           26.0025053765      -19.7396935766      -18.8053341474  MEMB      110             0.0000000000
     15562       138  DOPC      P              25.9885754894      -22.5115517620      -18.2984246568  MEMB      110             0.0000000000
     15563       138  DOPC      O13            26.7922631610      -23.6183261080      -18.8581285887  MEMB      110             0.0000000000
     15564       138  DOPC      O14            24.8845608195      -22.0138375782      -19.1501775885  MEMB      110             0.0000000000
     15565       138  DOPC      O12            26.9794956257      -21.3439923938      -17.8939802518  MEMB      110             0.0000000000
     15566       138  DOPC      O11            25.4142153398      -23.0424914194      -16.9306933822  MEMB      110             0.0000000000
     15567       138  DOPC      C1             24.3489370076      -22.4167149115      -16.2396869108  MEMB      110             0.0000000000
     15568       138  DOPC      HA             23.5307495798      -23.1589202204      -16.0947639468  MEMB      110             0.0000000000
     15569       138  DOPC      HB             23.9114421847      -21.5479215799      -16.7915705961  MEMB      110             0.0000000000
     15570       138  DOPC      C2             24.8310267441      -21.9206200804      -14.8599427679  MEMB      110             0.0000000000
     15571       138  DOPC      HS             23.9158310182      -21.7619214373      -14.2428463069  MEMB      110             0.0000000000
     15572       138  DOPC      O21            25.5912198826      -20.7235520481      -15.0694391212  MEMB      110             0.0000000000
     15573       138  DOPC      C21            25.4555828663      -19.8150127818      -14.1441123721  MEMB      110             0.0000000000
     15574       138  DOPC      O22            24.5762687692      -19.7411068844      -13.3113434169  MEMB      110             0.0000000000
     15575       138  DOPC      C22            26.5206478635      -18.7624590555      -14.3800459060  MEMB      110             0.0000000000
     15576       138  DOPC      H2R            26.1017288809      -18.1408407543      -15.1979069174  MEMB      110             0.0000000000
     15577       138  DOPC      H2S            27.4634833800      -19.2302048595      -14.7229955805  MEMB      110             0.0000000000
     15578       138  DOPC      C3             25.7360328910      -22.9142801543      -14.0966803567  MEMB      110             0.0000000000
     15579       138  DOPC      HX             26.7375556443      -22.8875914995      -14.5923972838  MEMB      110             0.0000000000
     15580       138  DOPC      HY             25.3244168459      -23.9356918722      -14.2212141735  MEMB      110             0.0000000000
     15581       138  DOPC      O31            25.7899568186      -22.5286034196      -12.6975207496  MEMB      110             0.0000000000
     15582       138  DOPC      C31            26.8013964884      -23.0375061390      -12.0155437550  MEMB      110             0.0000000000
     15583       138  DOPC      O32            27.6194877198      -23.8256212920      -12.4586213837  MEMB      110             0.0000000000
     15584       138  DOPC      C32            26.8757207409      -22.5418124688      -10.5478084867  MEMB      110             0.0000000000
     15585       138  DOPC      H2X            26.7985083500      -23.4486101989       -9.9137183029  MEMB      110             0.0000000000
     15586       138  DOPC      H2Y            27.9021453583      -22.1367670312      -10.4269968207  MEMB      110             0.0000000000
     15587       138  DOPC      C23            26.7316923919      -17.8507191785      -13.1579824789  MEMB      110             0.0000000000
     15588       138  DOPC      H3R            25.9208674335      -17.9318079292      -12.4025309263  MEMB      110             0.0000000000
     15589       138  DOPC      H3S            26.6744900467      -16.8162924727      -13.5669835097  MEMB      110             0.0000000000
     15590       138  DOPC      C24            28.0969290746      -17.9691753876      -12.4794622211  MEMB      110             0.0000000000
     15591       138  DOPC      H4R            28.2446610550      -17.0333014962      -11.8898672126  MEMB      110             0.0000000000
     15592       138  DOPC      H4S            28.8958601069      -18.0176306601      -13.2478503163  MEMB      110             0.0000000000
     15593       138  DOPC      C25            28.2599917747      -19.1369272586      -11.5031886864  MEMB      110             0.0000000000
     15594       138  DOPC      H5R            28.2522685436      -20.0966571741      -12.0640712705  MEMB      110             0.0000000000
     15595       138  DOPC      H5S            27.4087877166      -19.1301965913      -10.7875331664  MEMB      110             0.0000000000
     15596       138  DOPC      C26            29.5663403299      -18.9671700112      -10.7161729647  MEMB      110             0.0000000000
     15597       138  DOPC      H6R            29.4988471883      -18.0262954434      -10.1256935372  MEMB      110             0.0000000000
     15598       138  DOPC      H6S            30.4082900296      -18.8477176629      -11.4343607985  MEMB      110             0.0000000000
     15599       138  DOPC      C27            29.9201220118      -20.0942337472       -9.7408930554  MEMB      110             0.0000000000
     15600       138  DOPC      H7R            30.0623307735      -21.0385997463      -10.3104043448  MEMB      110             0.0000000000
     15601       138  DOPC      H7S            29.0865896981      -20.2460133355       -9.0225129667  MEMB      110             0.0000000000
     15602       138  DOPC      C28            31.1991692840      -19.7272173707       -8.9620527406  MEMB      110             0.0000000000
     15603       138  DOPC      H8R            30.9740138089      -18.8217213282       -8.3562060638  MEMB      110             0.0000000000
     15604       138  DOPC      H8S            31.9710009597      -19.4167530417       -9.7011076407  MEMB      110             0.0000000000
     15605       138  DOPC      C29            31.7394568062      -20.8297912263       -8.0876498489  MEMB      110             0.0000000000
     15606       138  DOPC      H9R            32.5753999776      -21.3984691987       -8.5247437875  MEMB      110             0.0000000000
     15607       138  DOPC      C210           31.3290033569      -21.1236681498       -6.8385476623  MEMB      110             0.0000000000
     15608       138  DOPC      H10R           31.8533376089      -21.9108846227       -6.2757734406  MEMB      110             0.0000000000
     15609       138  DOPC      C211           30.2484405432      -20.4095016774       -6.0660766938  MEMB      110             0.0000000000
     15610       138  DOPC      H11R           29.7186314106      -19.6639047604       -6.7004555997  MEMB      110             0.0000000000
     15611       138  DOPC      H11S           30.7641988973      -19.8477889391       -5.2605449329  MEMB      110             0.0000000000
     15612       138  DOPC      C212           29.1550778149      -21.2878225176       -5.4153339468  MEMB      110             0.0000000000
     15613       138  DOPC      H12R           29.6048635294      -22.2222931769       -5.0145219015  MEMB      110             0.0000000000
     15614       138  DOPC      H12S           28.4213626077      -21.5835099773       -6.2001439587  MEMB      110             0.0000000000
     15615       138  DOPC      C213           28.4006555737      -20.5964491321       -4.2556325903  MEMB      110             0.0000000000
     15616       138  DOPC      H13R           27.7043954523      -21.3274066418       -3.7893189734  MEMB      110             0.0000000000
     15617       138  DOPC      H13S           27.7758933914      -19.7749803090       -4.6738138235  MEMB      110             0.0000000000
     15618       138  DOPC      C214           29.2778233426      -19.9633444970       -3.1554766003  MEMB      110             0.0000000000
     15619       138  DOPC      H14R           28.6213345635      -19.6436253659       -2.3168992044  MEMB      110             0.0000000000
     15620       138  DOPC      H14S           29.7236037539      -19.0399971357       -3.5725583457  MEMB      110             0.0000000000
     15621       138  DOPC      C215           30.4526294565      -20.8055489466       -2.6237825214  MEMB      110             0.0000000000
     15622       138  DOPC      H15R           30.8541443761      -21.4565899502       -3.4296701545  MEMB      110             0.0000000000
     15623       138  DOPC      H15S           30.0937731362      -21.4793991533       -1.8239884420  MEMB      110             0.0000000000
     15624       138  DOPC      C216           31.6424450284      -19.9639447726       -2.1095379678  MEMB      110             0.0000000000
     15625       138  DOPC      H16R           32.2160199766      -19.5989313365       -2.9933015341  MEMB      110             0.0000000000
     15626       138  DOPC      H16S           32.3167061420      -20.6306275500       -1.5272260329  MEMB      110             0.0000000000
     15627       138  DOPC      C217           31.2786560707      -18.7341259078       -1.2587105947  MEMB      110             0.0000000000
     15628       138  DOPC      H17R           30.7835500348      -17.9830575256       -1.9163279925  MEMB      110             0.0000000000
     15629       138  DOPC      H17S           32.2222399081      -18.2658323505       -0.8924572905  MEMB      110             0.0000000000
     15630       138  DOPC      C218           30.3644407238      -19.0111331732       -0.0635618305  MEMB      110             0.0000000000
     15631       138  DOPC      H18R           29.9714982054      -18.0521589824        0.3376475286  MEMB      110             0.0000000000
     15632       138  DOPC      H18S           30.9134480722      -19.5432628602        0.7430862131  MEMB      110             0.0000000000
     15633       138  DOPC      H18T           29.4924953579      -19.6306191882       -0.3536183359  MEMB      110             0.0000000000
     15634       138  DOPC      C33            25.8645094910      -21.4797742894      -10.0192229117  MEMB      110             0.0000000000
     15635       138  DOPC      H3X            24.8316865555      -21.8847121958      -10.0957113460  MEMB      110             0.0000000000
     15636       138  DOPC      H3Y            25.9055239882      -20.5722065406      -10.6564213771  MEMB      110             0.0000000000
     15637       138  DOPC      C34            26.1629381503      -21.0846013780       -8.5454138989  MEMB      110             0.0000000000
     15638       138  DOPC      H4X            27.2640103129      -21.0422155408       -8.4051851558  MEMB      110             0.0000000000
     15639       138  DOPC      H4Y            25.7851853699      -21.8968339803       -7.8860360871  MEMB      110             0.0000000000
     15640       138  DOPC      C35            25.5830945432      -19.7296152706       -8.0685615060  MEMB      110             0.0000000000
     15641       138  DOPC      H5X            24.4868217649      -19.7478128109       -8.1897960931  MEMB      110             0.0000000000
     15642       138  DOPC      H5Y            25.9707718946      -18.8990722722       -8.6971241427  MEMB      110             0.0000000000
     15643       138  DOPC      C36            25.8157746365      -19.4034478742       -6.5787967349  MEMB      110             0.0000000000
     15644       138  DOPC      H6X            25.9239578639      -20.3729716935       -6.0380042109  MEMB      110             0.0000000000
     15645       138  DOPC      H6Y            26.7700259964      -18.8552124765       -6.4483777564  MEMB      110             0.0000000000
     15646       138  DOPC      C37            24.6368613313      -18.6618561066       -5.9013486511  MEMB      110             0.0000000000
     15647       138  DOPC      H7X            23.7062197541      -19.2278500413       -6.1315512885  MEMB      110             0.0000000000
     15648       138  DOPC      H7Y            24.7682569743      -18.6916934314       -4.8045144288  MEMB      110             0.0000000000
     15649       138  DOPC      C38            24.4034078321      -17.1821410569       -6.2711206321  MEMB      110             0.0000000000
     15650       138  DOPC      H8X            23.3575995891      -16.9316307115       -5.9921255453  MEMB      110             0.0000000000
     15651       138  DOPC      H8Y            24.4516067431      -17.1025512348       -7.3815490241  MEMB      110             0.0000000000
     15652       138  DOPC      C39            25.3802734838      -16.2006774485       -5.6657480185  MEMB      110             0.0000000000
     15653       138  DOPC      H9X            26.1150201164      -15.8800749915       -6.4062456352  MEMB      110             0.0000000000
     15654       138  DOPC      C310           25.5430694222      -15.6439086626       -4.4497213940  MEMB      110             0.0000000000
     15655       138  DOPC      H10X           26.4305577516      -15.0062263378       -4.3244777638  MEMB      110             0.0000000000
     15656       138  DOPC      C311           24.8015855098      -15.7696188183       -3.1487931528  MEMB      110             0.0000000000
     15657       138  DOPC      H11X           23.9675852417      -16.4980187327       -3.1966478721  MEMB      110             0.0000000000
     15658       138  DOPC      H11Y           24.3661530994      -14.7819665754       -2.8752373388  MEMB      110             0.0000000000
     15659       138  DOPC      C312           25.8029559062      -16.1716119242       -2.0459471182  MEMB      110             0.0000000000
     15660       138  DOPC      H12X           25.3900174656      -15.9036476399       -1.0475287698  MEMB      110             0.0000000000
     15661       138  DOPC      H12Y           26.7515428442      -15.5967155338       -2.1506163387  MEMB      110             0.0000000000
     15662       138  DOPC      C313           26.1076594304      -17.6767204538       -2.0842474671  MEMB      110             0.0000000000
     15663       138  DOPC      H13X           25.8097214262      -18.0569666783       -3.0846374146  MEMB      110             0.0000000000
     15664       138  DOPC      H13Y           27.2021895713      -17.8543471677       -1.9916632727  MEMB      110             0.0000000000
     15665       138  DOPC      C314           25.3500127366      -18.4300250614       -0.9819973433  MEMB      110             0.0000000000
     15666       138  DOPC      H14X           25.9173710611      -18.3272258816       -0.0278504016  MEMB      110             0.0000000000
     15667       138  DOPC      H14Y           24.3601021998      -17.9422766938       -0.8315704621  MEMB      110             0.0000000000
     15668       138  DOPC      C315           25.1027180405      -19.9239013574       -1.2558852888  MEMB      110             0.0000000000
     15669       138  DOPC      H15X           24.5607085534      -20.3304671107       -0.3733760112  MEMB      110             0.0000000000
     15670       138  DOPC      H15Y           26.0824357807      -20.4494160706       -1.3178197862  MEMB      110             0.0000000000
     15671       138  DOPC      C316           24.2869539616      -20.2672276502       -2.5217386704  MEMB      110             0.0000000000
     15672       138  DOPC      H16X           24.9330474605      -20.0714695491       -3.4007982299  MEMB      110             0.0000000000
     15673       138  DOPC      H16Y           24.0882865187      -21.3601819414       -2.5310985339  MEMB      110             0.0000000000
     15674       138  DOPC      C317           22.9457859515      -19.5237156567       -2.6856392141  MEMB      110             0.0000000000
     15675       138  DOPC      H17X           23.1615196006      -18.4419363748       -2.8329486198  MEMB      110             0.0000000000
     15676       138  DOPC      H17Y           22.4389880909      -19.8766665054       -3.6142259383  MEMB      110             0.0000000000
     15677       138  DOPC      C318           21.9731770818      -19.6717047966       -1.5112646572  MEMB      110             0.0000000000
     15678       138  DOPC      H18X           21.1695117958      -18.9059980267       -1.5730474487  MEMB      110             0.0000000000
     15679       138  DOPC      H18Y           21.4999409996      -20.6769882132       -1.5081846274  MEMB      110             0.0000000000
     15680       138  DOPC      H18Z           22.5029536344      -19.5269043089       -0.5462945253  MEMB      110             0.0000000000
     15681       139  DOPC      N              -1.3958261608       34.8960755511      -18.1819212216  MEMB      111             0.0000000000
     15682       139  DOPC      C12            -1.8001950504       33.5071302265      -17.7542976006  MEMB      111             0.0000000000
     15683       139  DOPC      H12A           -1.6255122484       33.3631453263      -16.6957453271  MEMB      111             0.0000000000
     15684       139  DOPC      H12B           -1.1871532008       32.7631132533      -18.2771310675  MEMB      111             0.0000000000
     15685       139  DOPC      C13            -1.7367757775       34.9889857244      -19.6365847429  MEMB      111             0.0000000000
     15686       139  DOPC      H13A           -1.2577417022       35.7866387408      -20.1714299414  MEMB      111             0.0000000000
     15687       139  DOPC      H13B           -1.4239526448       34.0573324547      -20.1300400771  MEMB      111             0.0000000000
     15688       139  DOPC      H13C           -2.8150599013       34.9830581523      -19.7827981270  MEMB      111             0.0000000000
     15689       139  DOPC      C14             0.0741122453       35.1105931410      -18.0457621467  MEMB      111             0.0000000000
     15690       139  DOPC      H14A            0.3960815578       36.0327754137      -18.5296610772  MEMB      111             0.0000000000
     15691       139  DOPC      H14B            0.3923178230       35.1506192244      -17.0123518763  MEMB      111             0.0000000000
     15692       139  DOPC      H14C            0.6099719959       34.2990280142      -18.5369728545  MEMB      111             0.0000000000
     15693       139  DOPC      C15            -2.1504468266       35.9498063542      -17.4369854001  MEMB      111             0.0000000000
     15694       139  DOPC      H15A           -2.0613169270       36.8891154466      -17.9626494116  MEMB      111             0.0000000000
     15695       139  DOPC      H15B           -1.7655298050       36.0936790776      -16.4333649560  MEMB      111             0.0000000000
     15696       139  DOPC      H15C           -3.2010936116       35.6711994997      -17.3793694373  MEMB      111             0.0000000000
     15697       139  DOPC      C11            -3.2592056858       33.0951958826      -18.0812758256  MEMB      111             0.0000000000
     15698       139  DOPC      H11A           -3.3342650802       32.0758345323      -17.6603196883  MEMB      111             0.0000000000
     15699       139  DOPC      H11B           -3.9790251636       33.7396234567      -17.5376274080  MEMB      111             0.0000000000
     15700       139  DOPC      P              -3.0239072540       31.9545698537      -20.3990098671  MEMB      111             0.0000000000
     15701       139  DOPC      O13            -1.6037082120       31.7879647745      -20.0021766228  MEMB      111             0.0000000000
     15702       139  DOPC      O14            -3.3279046233       32.2839752014      -21.8128603566  MEMB      111             0.0000000000
     15703       139  DOPC      O12            -3.6069988130       33.0918315762      -19.4731055955  MEMB      111             0.0000000000
     15704       139  DOPC      O11            -3.8404184084       30.6637822845      -19.9749555773  MEMB      111             0.0000000000
     15705       139  DOPC      C1             -5.2299062071       30.7631520522      -19.6308212642  MEMB      111             0.0000000000
     15706       139  DOPC      HA             -5.8441159593       30.2771126190      -20.4215750404  MEMB      111             0.0000000000
     15707       139  DOPC      HB             -5.5968722354       31.8157869058      -19.5510547822  MEMB      111             0.0000000000
     15708       139  DOPC      C2             -5.5795270842       30.0778346075      -18.2764565233  MEMB      111             0.0000000000
     15709       139  DOPC      HS             -6.6868883961       30.1256299525      -18.1911750739  MEMB      111             0.0000000000
     15710       139  DOPC      O21            -4.9363409006       30.6890295770      -17.1591141809  MEMB      111             0.0000000000
     15711       139  DOPC      C21            -5.6086707060       31.5931577487      -16.5199715295  MEMB      111             0.0000000000
     15712       139  DOPC      O22            -6.6977086647       32.0214419413      -16.8382998152  MEMB      111             0.0000000000
     15713       139  DOPC      C22            -4.7922910675       31.9643222187      -15.2817072768  MEMB      111             0.0000000000
     15714       139  DOPC      H2R            -4.2282663740       32.8949314482      -15.4769789062  MEMB      111             0.0000000000
     15715       139  DOPC      H2S            -4.0688636704       31.1415141492      -15.0789588967  MEMB      111             0.0000000000
     15716       139  DOPC      C3             -5.1561070428       28.6027801064      -18.1685618255  MEMB      111             0.0000000000
     15717       139  DOPC      HX             -5.2931585909       28.0744501832      -19.1356118169  MEMB      111             0.0000000000
     15718       139  DOPC      HY             -5.8239339566       28.1459828830      -17.4083595379  MEMB      111             0.0000000000
     15719       139  DOPC      O31            -3.8320563495       28.5170446024      -17.6173051775  MEMB      111             0.0000000000
     15720       139  DOPC      C31            -2.8553916771       28.2538294037      -18.4292016999  MEMB      111             0.0000000000
     15721       139  DOPC      O32            -2.9573182869       27.7419705130      -19.5339452740  MEMB      111             0.0000000000
     15722       139  DOPC      C32            -1.5227024159       28.5963732534      -17.7760504192  MEMB      111             0.0000000000
     15723       139  DOPC      H2X            -1.1528633360       27.6551878780      -17.3330998319  MEMB      111             0.0000000000
     15724       139  DOPC      H2Y            -0.8400636388       28.9244741627      -18.5835138703  MEMB      111             0.0000000000
     15725       139  DOPC      C23            -5.6897501518       32.1525497100      -14.0541518405  MEMB      111             0.0000000000
     15726       139  DOPC      H3R            -6.3412911262       31.2631493268      -13.9192097398  MEMB      111             0.0000000000
     15727       139  DOPC      H3S            -6.3667932641       33.0217704283      -14.2000392036  MEMB      111             0.0000000000
     15728       139  DOPC      C24            -4.8765293268       32.3114242768      -12.7734795199  MEMB      111             0.0000000000
     15729       139  DOPC      H4R            -4.2365750411       33.2189683891      -12.8363945856  MEMB      111             0.0000000000
     15730       139  DOPC      H4S            -4.2139312129       31.4272267174      -12.6279069897  MEMB      111             0.0000000000
     15731       139  DOPC      C25            -5.8296596382       32.4090213758      -11.5909940551  MEMB      111             0.0000000000
     15732       139  DOPC      H5R            -6.3976757055       31.4653561366      -11.5198782938  MEMB      111             0.0000000000
     15733       139  DOPC      H5S            -6.6089852201       33.1469407307      -11.8348062465  MEMB      111             0.0000000000
     15734       139  DOPC      C26            -5.1364427132       32.6929790358      -10.2552333063  MEMB      111             0.0000000000
     15735       139  DOPC      H6R            -5.5003667256       33.6147099884       -9.7643091455  MEMB      111             0.0000000000
     15736       139  DOPC      H6S            -4.0468805284       32.8411145823      -10.4293167817  MEMB      111             0.0000000000
     15737       139  DOPC      C27            -5.3447086055       31.4962982096       -9.3355683163  MEMB      111             0.0000000000
     15738       139  DOPC      H7R            -4.6712201231       30.7361522866       -9.7731603309  MEMB      111             0.0000000000
     15739       139  DOPC      H7S            -6.3797597594       31.0990837027       -9.4367441871  MEMB      111             0.0000000000
     15740       139  DOPC      C28            -5.0207712884       31.7154857138       -7.8558492432  MEMB      111             0.0000000000
     15741       139  DOPC      H8R            -4.1728459464       32.4287220490       -7.7431221770  MEMB      111             0.0000000000
     15742       139  DOPC      H8S            -4.6840565777       30.7346632782       -7.4543158600  MEMB      111             0.0000000000
     15743       139  DOPC      C29            -6.2442300157       32.1470606114       -7.0912642861  MEMB      111             0.0000000000
     15744       139  DOPC      H9R            -7.1491918694       32.3254155454       -7.6944732602  MEMB      111             0.0000000000
     15745       139  DOPC      C210           -6.2712458411       32.3748263515       -5.7694246908  MEMB      111             0.0000000000
     15746       139  DOPC      H10R           -7.2085676248       32.7094775574       -5.2972035988  MEMB      111             0.0000000000
     15747       139  DOPC      C211           -5.0834442653       32.2400032913       -4.8633843899  MEMB      111             0.0000000000
     15748       139  DOPC      H11R           -4.3613823420       31.5730736247       -5.3601935182  MEMB      111             0.0000000000
     15749       139  DOPC      H11S           -5.3778374293       31.7937359257       -3.8894458187  MEMB      111             0.0000000000
     15750       139  DOPC      C212           -4.3572363061       33.5643998645       -4.5803283093  MEMB      111             0.0000000000
     15751       139  DOPC      H12R           -4.9339751941       34.0634457811       -3.7658698784  MEMB      111             0.0000000000
     15752       139  DOPC      H12S           -4.3550938880       34.1997817767       -5.4976886895  MEMB      111             0.0000000000
     15753       139  DOPC      C213           -2.8930033915       33.4574681294       -4.1185239824  MEMB      111             0.0000000000
     15754       139  DOPC      H13R           -2.2805397949       32.9984384055       -4.9239790430  MEMB      111             0.0000000000
     15755       139  DOPC      H13S           -2.8893852132       32.7855771204       -3.2462719443  MEMB      111             0.0000000000
     15756       139  DOPC      C214           -2.2617487224       34.7938099250       -3.6921644590  MEMB      111             0.0000000000
     15757       139  DOPC      H14R           -2.8200837658       35.2144601752       -2.8283777820  MEMB      111             0.0000000000
     15758       139  DOPC      H14S           -2.3650475509       35.5134930565       -4.5358996431  MEMB      111             0.0000000000
     15759       139  DOPC      C215           -0.7717664131       34.7348447335       -3.3179466829  MEMB      111             0.0000000000
     15760       139  DOPC      H15R           -0.4652665879       35.7626230148       -3.0100379698  MEMB      111             0.0000000000
     15761       139  DOPC      H15S           -0.1739960697       34.4823819251       -4.2239130515  MEMB      111             0.0000000000
     15762       139  DOPC      C216           -0.3381740066       33.7776591726       -2.1883631797  MEMB      111             0.0000000000
     15763       139  DOPC      H16R            0.5587596137       34.2745724686       -1.7757245671  MEMB      111             0.0000000000
     15764       139  DOPC      H16S           -0.0212199707       32.7999056380       -2.6129200275  MEMB      111             0.0000000000
     15765       139  DOPC      C217           -1.2769273859       33.5701167282       -0.9869345461  MEMB      111             0.0000000000
     15766       139  DOPC      H17R           -2.2666006907       33.2285905849       -1.3430592373  MEMB      111             0.0000000000
     15767       139  DOPC      H17S           -1.4566361240       34.5499980538       -0.5046073477  MEMB      111             0.0000000000
     15768       139  DOPC      C218           -0.7545157675       32.5710587613        0.0650360128  MEMB      111             0.0000000000
     15769       139  DOPC      H18R           -1.3794331100       32.6046474911        0.9830806199  MEMB      111             0.0000000000
     15770       139  DOPC      H18S            0.2912369991       32.7877038239        0.3564658876  MEMB      111             0.0000000000
     15771       139  DOPC      H18T           -0.7826983733       31.5312570486       -0.3250958903  MEMB      111             0.0000000000
     15772       139  DOPC      C33            -1.6046400910       29.6739541772      -16.6756895200  MEMB      111             0.0000000000
     15773       139  DOPC      H3X            -2.2864921073       29.3345394334      -15.8619441555  MEMB      111             0.0000000000
     15774       139  DOPC      H3Y            -2.0400875698       30.5980359198      -17.1071692296  MEMB      111             0.0000000000
     15775       139  DOPC      C34            -0.2484884529       30.0112331601      -16.0559262447  MEMB      111             0.0000000000
     15776       139  DOPC      H4X             0.2816822899       30.7202015547      -16.7316406969  MEMB      111             0.0000000000
     15777       139  DOPC      H4Y             0.3813109648       29.0983519638      -15.9817741568  MEMB      111             0.0000000000
     15778       139  DOPC      C35            -0.3751485330       30.6386267956      -14.6584235910  MEMB      111             0.0000000000
     15779       139  DOPC      H5X            -1.3399643299       31.1904134514      -14.5996905092  MEMB      111             0.0000000000
     15780       139  DOPC      H5Y             0.4500264997       31.3731825940      -14.5161312189  MEMB      111             0.0000000000
     15781       139  DOPC      C36            -0.2904624301       29.5982979562      -13.5280183887  MEMB      111             0.0000000000
     15782       139  DOPC      H6X            -1.1758469429       28.9265606636      -13.5954205817  MEMB      111             0.0000000000
     15783       139  DOPC      H6Y             0.6260170937       28.9795329520      -13.6589935515  MEMB      111             0.0000000000
     15784       139  DOPC      C37            -0.2631616761       30.1935925886      -12.1134061902  MEMB      111             0.0000000000
     15785       139  DOPC      H7X            -0.1955970298       29.3509561306      -11.3856745694  MEMB      111             0.0000000000
     15786       139  DOPC      H7Y             0.6494518734       30.8139550830      -11.9884726145  MEMB      111             0.0000000000
     15787       139  DOPC      C38            -1.5197022011       31.0224912316      -11.8044203358  MEMB      111             0.0000000000
     15788       139  DOPC      H8X            -2.4010317552       30.3508318687      -11.9294407055  MEMB      111             0.0000000000
     15789       139  DOPC      H8Y            -1.6325929473       31.8273151825      -12.5602065717  MEMB      111             0.0000000000
     15790       139  DOPC      C39            -1.5175892682       31.6377286108      -10.4330591020  MEMB      111             0.0000000000
     15791       139  DOPC      H9X            -1.1726065352       32.6829429793      -10.3821833595  MEMB      111             0.0000000000
     15792       139  DOPC      C310           -1.8608044010       30.9955986722       -9.3053051809  MEMB      111             0.0000000000
     15793       139  DOPC      H10X           -1.8783122974       31.5555916697       -8.3566949924  MEMB      111             0.0000000000
     15794       139  DOPC      C311           -2.2971480458       29.5514818965       -9.2184831277  MEMB      111             0.0000000000
     15795       139  DOPC      H11X           -2.0121320006       28.9767660168      -10.1266588410  MEMB      111             0.0000000000
     15796       139  DOPC      H11Y           -3.3959125954       29.4386109466       -9.1197527102  MEMB      111             0.0000000000
     15797       139  DOPC      C312           -1.6895385976       28.8743717039       -7.9893175748  MEMB      111             0.0000000000
     15798       139  DOPC      H12X           -0.7199531758       29.3344754177       -7.6999375815  MEMB      111             0.0000000000
     15799       139  DOPC      H12Y           -1.4600424356       27.8201338188       -8.2463012589  MEMB      111             0.0000000000
     15800       139  DOPC      C313           -2.6490300590       28.8797256410       -6.7948232197  MEMB      111             0.0000000000
     15801       139  DOPC      H13X           -2.9716068212       29.9197632381       -6.5702519123  MEMB      111             0.0000000000
     15802       139  DOPC      H13Y           -3.5700880007       28.3015112837       -7.0298918663  MEMB      111             0.0000000000
     15803       139  DOPC      C314           -1.9625643143       28.3078942683       -5.5599802610  MEMB      111             0.0000000000
     15804       139  DOPC      H14X           -2.6699448519       27.6501094154       -5.0145663043  MEMB      111             0.0000000000
     15805       139  DOPC      H14Y           -1.1126546584       27.6642438948       -5.8776737869  MEMB      111             0.0000000000
     15806       139  DOPC      C315           -1.4620819262       29.4498263474       -4.6690460494  MEMB      111             0.0000000000
     15807       139  DOPC      H15X           -1.0481555375       30.2636530763       -5.3066916834  MEMB      111             0.0000000000
     15808       139  DOPC      H15Y           -0.6069069041       29.1053774526       -4.0696740684  MEMB      111             0.0000000000
     15809       139  DOPC      C316           -2.5774747794       30.0134889884       -3.7749942884  MEMB      111             0.0000000000
     15810       139  DOPC      H16X           -2.9715470839       30.8906813166       -4.2957183237  MEMB      111             0.0000000000
     15811       139  DOPC      H16Y           -3.4226787122       29.3009167908       -3.6944589810  MEMB      111             0.0000000000
     15812       139  DOPC      C317           -2.1557398874       30.4656085496       -2.3716690264  MEMB      111             0.0000000000
     15813       139  DOPC      H17X           -1.5595432896       29.6830412766       -1.8753423502  MEMB      111             0.0000000000
     15814       139  DOPC      H17Y           -1.4918759285       31.3402377198       -2.5000883994  MEMB      111             0.0000000000
     15815       139  DOPC      C318           -3.3309178398       30.8134484413       -1.4508664339  MEMB      111             0.0000000000
     15816       139  DOPC      H18X           -4.0488486007       31.4856711845       -1.9672789945  MEMB      111             0.0000000000
     15817       139  DOPC      H18Y           -3.8646095058       29.8880217268       -1.1691126065  MEMB      111             0.0000000000
     15818       139  DOPC      H18Z           -3.0160616011       31.3041249455       -0.5097224272  MEMB      111             0.0000000000
     15819       140  DOPC      N              22.0828402164       23.0085752140      -20.7176874319  MEMB      112             0.0000000000
     15820       140  DOPC      C12            20.7580697233       22.7026630214      -20.0188113970  MEMB      112             0.0000000000
     15821       140  DOPC      H12A           20.5894058887       21.6400697849      -20.0212418671  MEMB      112             0.0000000000
     15822       140  DOPC      H12B           19.9465649240       23.1752103179      -20.5535988119  MEMB      112             0.0000000000
     15823       140  DOPC      C13            23.2095207326       22.3944764702      -19.9250791631  MEMB      112             0.0000000000
     15824       140  DOPC      H13A           23.1850745703       22.7930353145      -18.9147561490  MEMB      112             0.0000000000
     15825       140  DOPC      H13B           23.1435440177       21.3098141487      -19.8528911548  MEMB      112             0.0000000000
     15826       140  DOPC      H13C           24.1801551364       22.6195475270      -20.3554668786  MEMB      112             0.0000000000
     15827       140  DOPC      C14            22.2714749560       24.4982073930      -20.7876942463  MEMB      112             0.0000000000
     15828       140  DOPC      H14A           23.2719335409       24.7509765000      -21.1014110987  MEMB      112             0.0000000000
     15829       140  DOPC      H14B           21.5508474371       24.9566799129      -21.4514269262  MEMB      112             0.0000000000
     15830       140  DOPC      H14C           22.0681641937       24.9176819094      -19.7961643598  MEMB      112             0.0000000000
     15831       140  DOPC      C15            22.1622539102       22.4781951937      -22.1021282413  MEMB      112             0.0000000000
     15832       140  DOPC      H15A           23.0969562023       22.8253425370      -22.5425795738  MEMB      112             0.0000000000
     15833       140  DOPC      H15B           21.3541248824       22.8209339960      -22.7349885469  MEMB      112             0.0000000000
     15834       140  DOPC      H15C           22.2152985021       21.3967540763      -22.1199690531  MEMB      112             0.0000000000
     15835       140  DOPC      C11            20.6042872742       23.1903935920      -18.5569045976  MEMB      112             0.0000000000
     15836       140  DOPC      H11A           19.6153146649       22.8506746675      -18.1587908440  MEMB      112             0.0000000000
     15837       140  DOPC      H11B           21.3874587646       22.7232357479      -17.9178138763  MEMB      112             0.0000000000
     15838       140  DOPC      P              20.3861089489       25.4960284665      -17.2858326013  MEMB      112             0.0000000000
     15839       140  DOPC      O13            18.9712072415       25.3286425156      -16.8928417333  MEMB      112             0.0000000000
     15840       140  DOPC      O14            20.8284956518       26.8763902894      -17.6059377493  MEMB      112             0.0000000000
     15841       140  DOPC      O12            20.7015094112       24.6066282502      -18.5462445382  MEMB      112             0.0000000000
     15842       140  DOPC      O11            21.3305407909       24.8693675358      -16.1881703327  MEMB      112             0.0000000000
     15843       140  DOPC      C1             22.7384358266       24.7913289873      -16.4393840891  MEMB      112             0.0000000000
     15844       140  DOPC      HA             23.0938957330       25.5113624455      -17.2117219872  MEMB      112             0.0000000000
     15845       140  DOPC      HB             22.9698551756       23.7717271960      -16.8155084651  MEMB      112             0.0000000000
     15846       140  DOPC      C2             23.5598225086       25.0281784311      -15.1348971209  MEMB      112             0.0000000000
     15847       140  DOPC      HS             24.5136722675       24.4599983885      -15.2238600444  MEMB      112             0.0000000000
     15848       140  DOPC      O21            22.8576675848       24.5929820783      -13.9580705415  MEMB      112             0.0000000000
     15849       140  DOPC      C21            22.4460512763       23.3274229825      -14.0218437720  MEMB      112             0.0000000000
     15850       140  DOPC      O22            22.8749246624       22.4884930700      -14.7981930740  MEMB      112             0.0000000000
     15851       140  DOPC      C22            21.4526462041       23.0207716125      -12.8937397921  MEMB      112             0.0000000000
     15852       140  DOPC      H2R            22.0330296222       23.1633513943      -11.9637512162  MEMB      112             0.0000000000
     15853       140  DOPC      H2S            21.1918415622       21.9445215596      -12.9565454670  MEMB      112             0.0000000000
     15854       140  DOPC      C3             23.9325777438       26.5299173286      -14.9648024098  MEMB      112             0.0000000000
     15855       140  DOPC      HX             24.6414304594       26.7999262982      -15.7767956044  MEMB      112             0.0000000000
     15856       140  DOPC      HY             24.4785436710       26.6578687706      -14.0026983283  MEMB      112             0.0000000000
     15857       140  DOPC      O31            22.7712268845       27.3818202563      -15.0730746104  MEMB      112             0.0000000000
     15858       140  DOPC      C31            22.0830281584       27.5114159881      -13.9302744192  MEMB      112             0.0000000000
     15859       140  DOPC      O32            22.5391030938       27.3118121893      -12.8174735673  MEMB      112             0.0000000000
     15860       140  DOPC      C32            20.6890928890       28.0346855050      -14.2413309871  MEMB      112             0.0000000000
     15861       140  DOPC      H2X            20.7725850822       28.8930103090      -14.9368283741  MEMB      112             0.0000000000
     15862       140  DOPC      H2Y            20.1605401904       27.2110458881      -14.7720602217  MEMB      112             0.0000000000
     15863       140  DOPC      C23            20.1535974744       23.8737955171      -12.8884227413  MEMB      112             0.0000000000
     15864       140  DOPC      H3R            19.4002247135       23.4077687191      -13.5611672967  MEMB      112             0.0000000000
     15865       140  DOPC      H3S            20.3610738937       24.8875332731      -13.3074721260  MEMB      112             0.0000000000
     15866       140  DOPC      C24            19.5821908194       24.0758326395      -11.4674139939  MEMB      112             0.0000000000
     15867       140  DOPC      H4R            19.4210400379       23.0923756128      -10.9773498933  MEMB      112             0.0000000000
     15868       140  DOPC      H4S            18.5969506252       24.5720103983      -11.5484623209  MEMB      112             0.0000000000
     15869       140  DOPC      C25            20.5611780036       24.9349271078      -10.6542297877  MEMB      112             0.0000000000
     15870       140  DOPC      H5R            20.9185800407       25.7646531942      -11.3062209744  MEMB      112             0.0000000000
     15871       140  DOPC      H5S            21.4401974156       24.2976016320      -10.4134635122  MEMB      112             0.0000000000
     15872       140  DOPC      C26            20.1188460093       25.5441361049       -9.3227367907  MEMB      112             0.0000000000
     15873       140  DOPC      H6R            19.4719385261       24.8351930223       -8.7615909347  MEMB      112             0.0000000000
     15874       140  DOPC      H6S            19.5308142529       26.4715345758       -9.4941894855  MEMB      112             0.0000000000
     15875       140  DOPC      C27            21.3688040172       25.8431369421       -8.4686097760  MEMB      112             0.0000000000
     15876       140  DOPC      H7R            21.9039341077       24.8797430846       -8.3049182565  MEMB      112             0.0000000000
     15877       140  DOPC      H7S            21.0382031649       26.2119576337       -7.4860198951  MEMB      112             0.0000000000
     15878       140  DOPC      C28            22.3638664442       26.8578099160       -9.0778783033  MEMB      112             0.0000000000
     15879       140  DOPC      H8R            21.8700176159       27.8512355958       -9.1154096846  MEMB      112             0.0000000000
     15880       140  DOPC      H8S            22.5426527293       26.5724392191      -10.1359509379  MEMB      112             0.0000000000
     15881       140  DOPC      C29            23.7241966500       27.0273897548       -8.4498708944  MEMB      112             0.0000000000
     15882       140  DOPC      H9R            24.4384941571       27.5198921282       -9.1266199448  MEMB      112             0.0000000000
     15883       140  DOPC      C210           24.2206854745       26.6008619709       -7.2774770263  MEMB      112             0.0000000000
     15884       140  DOPC      H10R           25.2359120954       26.9414462667       -7.0328225178  MEMB      112             0.0000000000
     15885       140  DOPC      C211           23.5870815111       25.7970874433       -6.1697884311  MEMB      112             0.0000000000
     15886       140  DOPC      H11R           22.4858413280       25.7867738968       -6.1891587764  MEMB      112             0.0000000000
     15887       140  DOPC      H11S           23.8156597667       26.3103167784       -5.2246473064  MEMB      112             0.0000000000
     15888       140  DOPC      C212           24.1135357089       24.3431749720       -6.1989259985  MEMB      112             0.0000000000
     15889       140  DOPC      H12R           25.2281073375       24.3782455907       -6.2368250232  MEMB      112             0.0000000000
     15890       140  DOPC      H12S           23.7687276582       23.8448778778       -7.1320609629  MEMB      112             0.0000000000
     15891       140  DOPC      C213           23.7643999296       23.4586291435       -4.9848290782  MEMB      112             0.0000000000
     15892       140  DOPC      H13R           23.9881039333       24.0044824346       -4.0467410958  MEMB      112             0.0000000000
     15893       140  DOPC      H13S           24.4388309215       22.5709539483       -4.9982729171  MEMB      112             0.0000000000
     15894       140  DOPC      C214           22.3194950002       22.9460214214       -4.8659350899  MEMB      112             0.0000000000
     15895       140  DOPC      H14R           22.1119025400       22.2011959725       -5.6665834812  MEMB      112             0.0000000000
     15896       140  DOPC      H14S           21.6134083710       23.7937977937       -4.9937799681  MEMB      112             0.0000000000
     15897       140  DOPC      C215           22.1419774656       22.3034146207       -3.4753439722  MEMB      112             0.0000000000
     15898       140  DOPC      H15R           22.5038795508       23.0250180668       -2.7092353599  MEMB      112             0.0000000000
     15899       140  DOPC      H15S           22.8232574209       21.4231644483       -3.4196615843  MEMB      112             0.0000000000
     15900       140  DOPC      C216           20.7254332972       21.8427085110       -3.0829502578  MEMB      112             0.0000000000
     15901       140  DOPC      H16R           20.8068968416       21.3599103579       -2.0792431478  MEMB      112             0.0000000000
     15902       140  DOPC      H16S           20.3666332946       21.0707494837       -3.7982335300  MEMB      112             0.0000000000
     15903       140  DOPC      C217           19.6745410776       22.9570788975       -2.9630543286  MEMB      112             0.0000000000
     15904       140  DOPC      H17R           18.7122265148       22.4950463716       -2.6363493305  MEMB      112             0.0000000000
     15905       140  DOPC      H17S           19.5005475282       23.4146712982       -3.9625400731  MEMB      112             0.0000000000
     15906       140  DOPC      C218           20.0504887336       24.0471054423       -1.9617990051  MEMB      112             0.0000000000
     15907       140  DOPC      H18R           20.1610990393       23.6113576140       -0.9450202278  MEMB      112             0.0000000000
     15908       140  DOPC      H18S           19.2699455705       24.8371435430       -1.9189564919  MEMB      112             0.0000000000
     15909       140  DOPC      H18T           21.0094119973       24.5341147907       -2.2394705503  MEMB      112             0.0000000000
     15910       140  DOPC      C33            19.8770506338       28.4062228857      -12.9774303939  MEMB      112             0.0000000000
     15911       140  DOPC      H3X            19.8623702146       27.5662167320      -12.2486562706  MEMB      112             0.0000000000
     15912       140  DOPC      H3Y            18.8388920469       28.5618380860      -13.3394235378  MEMB      112             0.0000000000
     15913       140  DOPC      C34            20.3210446537       29.7043908511      -12.2849295197  MEMB      112             0.0000000000
     15914       140  DOPC      H4X            20.3709979601       30.4895000658      -13.0727855118  MEMB      112             0.0000000000
     15915       140  DOPC      H4Y            21.3444339465       29.5735401342      -11.8665663451  MEMB      112             0.0000000000
     15916       140  DOPC      C35            19.3702768635       30.2155766823      -11.1777096129  MEMB      112             0.0000000000
     15917       140  DOPC      H5X            18.3151653154       29.9914865985      -11.4192120500  MEMB      112             0.0000000000
     15918       140  DOPC      H5Y            19.4257725007       31.3249341090      -11.1768153154  MEMB      112             0.0000000000
     15919       140  DOPC      C36            19.7226401994       29.7295431902       -9.7590617232  MEMB      112             0.0000000000
     15920       140  DOPC      H6X            19.4604854129       28.6540061763       -9.6603615243  MEMB      112             0.0000000000
     15921       140  DOPC      H6Y            20.8193315645       29.8315953601       -9.6112814788  MEMB      112             0.0000000000
     15922       140  DOPC      C37            19.0099405789       30.5284772935       -8.6499903714  MEMB      112             0.0000000000
     15923       140  DOPC      H7X            19.1152537538       31.6131582541       -8.8763963881  MEMB      112             0.0000000000
     15924       140  DOPC      H7Y            17.9242346330       30.2846873771       -8.6746409097  MEMB      112             0.0000000000
     15925       140  DOPC      C38            19.5430601996       30.3194381431       -7.2149003976  MEMB      112             0.0000000000
     15926       140  DOPC      H8X            18.7233447736       30.5862284379       -6.5077958461  MEMB      112             0.0000000000
     15927       140  DOPC      H8Y            20.3456619152       31.0678974119       -7.0299125882  MEMB      112             0.0000000000
     15928       140  DOPC      C39            20.1001203903       28.9530359330       -6.9114256931  MEMB      112             0.0000000000
     15929       140  DOPC      H9X            21.1222160438       28.7790621396       -7.2838106118  MEMB      112             0.0000000000
     15930       140  DOPC      C310           19.4783236398       27.9571619199       -6.2598735842  MEMB      112             0.0000000000
     15931       140  DOPC      H10X           20.0315696442       27.0403115173       -6.0083563682  MEMB      112             0.0000000000
     15932       140  DOPC      C311           18.0901864664       28.0017714058       -5.7033769887  MEMB      112             0.0000000000
     15933       140  DOPC      H11X           17.6425630183       26.9823996728       -5.7092702635  MEMB      112             0.0000000000
     15934       140  DOPC      H11Y           17.4539327559       28.6420439776       -6.3520337032  MEMB      112             0.0000000000
     15935       140  DOPC      C312           18.0529918935       28.5724092403       -4.2792001740  MEMB      112             0.0000000000
     15936       140  DOPC      H12X           16.9903021799       28.6733930364       -3.9628173812  MEMB      112             0.0000000000
     15937       140  DOPC      H12Y           18.4852886786       29.5971446524       -4.2983443258  MEMB      112             0.0000000000
     15938       140  DOPC      C313           18.7827486417       27.7036841854       -3.2430155736  MEMB      112             0.0000000000
     15939       140  DOPC      H13X           18.1604611803       26.7990415238       -3.0550188850  MEMB      112             0.0000000000
     15940       140  DOPC      H13Y           19.7589256987       27.3504374185       -3.6394413375  MEMB      112             0.0000000000
     15941       140  DOPC      C314           19.0121775775       28.4379385953       -1.9110197173  MEMB      112             0.0000000000
     15942       140  DOPC      H14X           18.0745903277       28.9582732520       -1.6165090139  MEMB      112             0.0000000000
     15943       140  DOPC      H14Y           19.2520001873       27.6845477718       -1.1388554200  MEMB      112             0.0000000000
     15944       140  DOPC      C315           20.1643169837       29.4436385390       -1.9334878561  MEMB      112             0.0000000000
     15945       140  DOPC      H15X           20.1314272913       30.1263800072       -1.0608735491  MEMB      112             0.0000000000
     15946       140  DOPC      H15Y           20.0648548227       30.0762124347       -2.8491684895  MEMB      112             0.0000000000
     15947       140  DOPC      C316           21.5505502804       28.8010093037       -1.9928830648  MEMB      112             0.0000000000
     15948       140  DOPC      H16X           21.5766472674       28.0705209238       -2.8259107662  MEMB      112             0.0000000000
     15949       140  DOPC      H16Y           22.2004300544       29.6696705571       -2.2263912075  MEMB      112             0.0000000000
     15950       140  DOPC      C317           22.1584273160       28.1310296651       -0.7538142474  MEMB      112             0.0000000000
     15951       140  DOPC      H17X           21.4976742917       28.2774694507        0.1228578274  MEMB      112             0.0000000000
     15952       140  DOPC      H17Y           22.1772783422       27.0329904737       -0.9330510004  MEMB      112             0.0000000000
     15953       140  DOPC      C318           23.5884624340       28.6352679731       -0.4559481996  MEMB      112             0.0000000000
     15954       140  DOPC      H18X           23.8160733372       29.5559248007       -1.0351904517  MEMB      112             0.0000000000
     15955       140  DOPC      H18Y           23.7280190154       28.8919246589        0.6149740452  MEMB      112             0.0000000000
     15956       140  DOPC      H18Z           24.3461440595       27.8767927108       -0.7310728544  MEMB      112             0.0000000000
     15957       141  DOPC      N             -30.1380246772        5.4061638865      -19.7853807081  MEMB      113             0.0000000000
     15958       141  DOPC      C12           -30.0415263673        6.7436425164      -20.5182580212  MEMB      113             0.0000000000
     15959       141  DOPC      H12A          -31.0362200692        7.0206287093      -20.8600167315  MEMB      113             0.0000000000
     15960       141  DOPC      H12B          -29.4401790268        6.5926336350      -21.4016618802  MEMB      113             0.0000000000
     15961       141  DOPC      C13           -31.1187718263        5.5507855613      -18.6506817864  MEMB      113             0.0000000000
     15962       141  DOPC      H13A          -31.0422632182        4.7713372194      -17.9061465873  MEMB      113             0.0000000000
     15963       141  DOPC      H13B          -30.9497895203        6.5234885909      -18.1669960559  MEMB      113             0.0000000000
     15964       141  DOPC      H13C          -32.1469443118        5.5754981116      -18.9955447479  MEMB      113             0.0000000000
     15965       141  DOPC      C14           -28.8022090518        4.9982031956      -19.2489135187  MEMB      113             0.0000000000
     15966       141  DOPC      H14A          -28.0630420152        4.9173823423      -20.0454353050  MEMB      113             0.0000000000
     15967       141  DOPC      H14B          -28.4449776887        5.7672241609      -18.5685798313  MEMB      113             0.0000000000
     15968       141  DOPC      H14C          -28.8417603510        4.0684015132      -18.6924951227  MEMB      113             0.0000000000
     15969       141  DOPC      C15           -30.6393328033        4.4282373490      -20.8052008504  MEMB      113             0.0000000000
     15970       141  DOPC      H15A          -29.9765997710        4.3887840015      -21.6697460187  MEMB      113             0.0000000000
     15971       141  DOPC      H15B          -31.6078377308        4.7778530049      -21.1760109137  MEMB      113             0.0000000000
     15972       141  DOPC      H15C          -30.7742820340        3.4408235797      -20.3959660448  MEMB      113             0.0000000000
     15973       141  DOPC      C11           -29.4659059834        8.0049395255      -19.8465014757  MEMB      113             0.0000000000
     15974       141  DOPC      H11A          -28.4744009811        7.7709003181      -19.3872324611  MEMB      113             0.0000000000
     15975       141  DOPC      H11B          -29.2819302555        8.7405721776      -20.6746814244  MEMB      113             0.0000000000
     15976       141  DOPC      P             -29.9165904396        9.8349275652      -18.1106374516  MEMB      113             0.0000000000
     15977       141  DOPC      O13           -30.9714683362       10.2576777691      -17.1703704083  MEMB      113             0.0000000000
     15978       141  DOPC      O14           -29.3595062708       10.8611427704      -19.0265717856  MEMB      113             0.0000000000
     15979       141  DOPC      O12           -30.4084799602        8.5450908107      -18.9157078339  MEMB      113             0.0000000000
     15980       141  DOPC      O11           -28.7413875639        9.1797956200      -17.3060961801  MEMB      113             0.0000000000
     15981       141  DOPC      C1            -28.8752995519        7.9264943174      -16.6440446093  MEMB      113             0.0000000000
     15982       141  DOPC      HA            -28.3252986862        7.1464299210      -17.2123517115  MEMB      113             0.0000000000
     15983       141  DOPC      HB            -29.9322114556        7.5836556069      -16.5549587974  MEMB      113             0.0000000000
     15984       141  DOPC      C2            -28.2152514120        8.0629510036      -15.2610253968  MEMB      113             0.0000000000
     15985       141  DOPC      HS            -28.1916319706        7.0638862511      -14.7655212363  MEMB      113             0.0000000000
     15986       141  DOPC      O21           -28.9348957980        9.0181476826      -14.4471039891  MEMB      113             0.0000000000
     15987       141  DOPC      C21           -30.1694874720        8.6247003200      -14.1575320259  MEMB      113             0.0000000000
     15988       141  DOPC      O22           -30.5741993948        7.4739858714      -14.2268304612  MEMB      113             0.0000000000
     15989       141  DOPC      C22           -31.0250868883        9.8011119397      -13.7049254141  MEMB      113             0.0000000000
     15990       141  DOPC      H2R           -32.0290285685        9.6535323533      -14.1599845875  MEMB      113             0.0000000000
     15991       141  DOPC      H2S           -30.5980764325       10.7315273327      -14.1333892247  MEMB      113             0.0000000000
     15992       141  DOPC      C3            -26.7464225280        8.5240846857      -15.4618231704  MEMB      113             0.0000000000
     15993       141  DOPC      HX            -26.7247092694        9.5266490526      -15.9421387729  MEMB      113             0.0000000000
     15994       141  DOPC      HY            -26.2566542610        7.8175206380      -16.1742021749  MEMB      113             0.0000000000
     15995       141  DOPC      O31           -26.0639651918        8.4873025868      -14.2051136186  MEMB      113             0.0000000000
     15996       141  DOPC      C31           -26.0434837144        9.6048230645      -13.5046224627  MEMB      113             0.0000000000
     15997       141  DOPC      O32           -26.2440704640       10.7352632310      -13.9012834545  MEMB      113             0.0000000000
     15998       141  DOPC      C32           -25.8065585953        9.1998538957      -12.0566809427  MEMB      113             0.0000000000
     15999       141  DOPC      H2X           -26.6295688444        8.4870637239      -11.8150267405  MEMB      113             0.0000000000
     16000       141  DOPC      H2Y           -24.8230571644        8.6868224018      -12.0030190925  MEMB      113             0.0000000000
     16001       141  DOPC      C23           -31.1421047860        9.8921600493      -12.1634011618  MEMB      113             0.0000000000
     16002       141  DOPC      H3R           -31.8707834164       10.7023328404      -11.9312405086  MEMB      113             0.0000000000
     16003       141  DOPC      H3S           -30.1599861222       10.1847737330      -11.7328222309  MEMB      113             0.0000000000
     16004       141  DOPC      C24           -31.6267304969        8.5839197499      -11.5165785674  MEMB      113             0.0000000000
     16005       141  DOPC      H4R           -30.8170196443        7.8211775412      -11.5416990226  MEMB      113             0.0000000000
     16006       141  DOPC      H4S           -32.4660532439        8.1885245147      -12.1381123555  MEMB      113             0.0000000000
     16007       141  DOPC      C25           -32.1534585861        8.7400212785      -10.0821602345  MEMB      113             0.0000000000
     16008       141  DOPC      H5R           -32.5501216933        7.7550279617       -9.7429746154  MEMB      113             0.0000000000
     16009       141  DOPC      H5S           -33.0100347564        9.4508965847      -10.1078244822  MEMB      113             0.0000000000
     16010       141  DOPC      C26           -31.1430998698        9.2404460311       -9.0371395109  MEMB      113             0.0000000000
     16011       141  DOPC      H6R           -30.6871646314       10.1937793214       -9.3819798176  MEMB      113             0.0000000000
     16012       141  DOPC      H6S           -30.3226542168        8.4986414376       -8.9192438827  MEMB      113             0.0000000000
     16013       141  DOPC      C27           -31.8543828928        9.4730205731       -7.6907358260  MEMB      113             0.0000000000
     16014       141  DOPC      H7R           -32.2650204772        8.4965057538       -7.3456905591  MEMB      113             0.0000000000
     16015       141  DOPC      H7S           -32.7128505911       10.1600434970       -7.8701739506  MEMB      113             0.0000000000
     16016       141  DOPC      C28           -30.9606770977       10.0673450636       -6.5883419257  MEMB      113             0.0000000000
     16017       141  DOPC      H8R           -30.5063090260       11.0086809360       -6.9666321638  MEMB      113             0.0000000000
     16018       141  DOPC      H8S           -30.1368563725        9.3450127470       -6.4092161820  MEMB      113             0.0000000000
     16019       141  DOPC      C29           -31.6986139949       10.2721717362       -5.2882662651  MEMB      113             0.0000000000
     16020       141  DOPC      H9R           -32.1326622729        9.3522120235       -4.8663548577  MEMB      113             0.0000000000
     16021       141  DOPC      C210          -31.8908429054       11.4220308028       -4.6167903078  MEMB      113             0.0000000000
     16022       141  DOPC      H10R          -32.4527958382       11.3685659565       -3.6721157309  MEMB      113             0.0000000000
     16023       141  DOPC      C211          -31.4234698556       12.8114191169       -4.9825092304  MEMB      113             0.0000000000
     16024       141  DOPC      H11R          -32.3124285293       13.4484070513       -5.1885354281  MEMB      113             0.0000000000
     16025       141  DOPC      H11S          -30.7993081391       12.8207317036       -5.9044019207  MEMB      113             0.0000000000
     16026       141  DOPC      C212          -30.6116656532       13.5267101905       -3.8862280456  MEMB      113             0.0000000000
     16027       141  DOPC      H12R          -30.5917583796       14.6163997599       -4.1176223602  MEMB      113             0.0000000000
     16028       141  DOPC      H12S          -29.5638339665       13.1609944797       -3.9175350273  MEMB      113             0.0000000000
     16029       141  DOPC      C213          -31.1311585244       13.3444300060       -2.4565235672  MEMB      113             0.0000000000
     16030       141  DOPC      H13R          -30.6045302162       12.4563683964       -2.0340729497  MEMB      113             0.0000000000
     16031       141  DOPC      H13S          -32.2240164221       13.1455527835       -2.4295082499  MEMB      113             0.0000000000
     16032       141  DOPC      C214          -30.8449267442       14.5684350943       -1.5835879798  MEMB      113             0.0000000000
     16033       141  DOPC      H14R          -31.5518275598       15.3903458090       -1.8184103346  MEMB      113             0.0000000000
     16034       141  DOPC      H14S          -29.8086807082       14.8970182686       -1.8313422673  MEMB      113             0.0000000000
     16035       141  DOPC      C215          -30.8648419630       14.2360907964       -0.0955117199  MEMB      113             0.0000000000
     16036       141  DOPC      H15R          -29.9159131080       14.5811271276        0.3607592619  MEMB      113             0.0000000000
     16037       141  DOPC      H15S          -30.8886416221       13.1355040325       -0.0347998506  MEMB      113             0.0000000000
     16038       141  DOPC      C216          -32.0622723349       14.7345923588        0.7249728327  MEMB      113             0.0000000000
     16039       141  DOPC      H16R          -32.9930582100       14.5133479919        0.1586111314  MEMB      113             0.0000000000
     16040       141  DOPC      H16S          -31.9858515449       15.8306212937        0.8829631241  MEMB      113             0.0000000000
     16041       141  DOPC      C217          -32.1108181237       14.0036999619        2.0780436832  MEMB      113             0.0000000000
     16042       141  DOPC      H17R          -31.7325767319       14.6394039840        2.8970955035  MEMB      113             0.0000000000
     16043       141  DOPC      H17S          -31.3563184347       13.1966170395        1.9928323043  MEMB      113             0.0000000000
     16044       141  DOPC      C218          -33.4493992304       13.3559083771        2.4645301490  MEMB      113             0.0000000000
     16045       141  DOPC      H18R          -33.2934311216       12.6419205457        3.3055453378  MEMB      113             0.0000000000
     16046       141  DOPC      H18S          -33.8744173739       12.7820771492        1.6118287532  MEMB      113             0.0000000000
     16047       141  DOPC      H18T          -34.1879462782       14.1211226887        2.7724513314  MEMB      113             0.0000000000
     16048       141  DOPC      C33           -25.8544584176       10.3471338557      -11.0393108229  MEMB      113             0.0000000000
     16049       141  DOPC      H3X           -26.8263669549       10.8753898053      -11.1747870771  MEMB      113             0.0000000000
     16050       141  DOPC      H3Y           -25.0462570911       11.0842182708      -11.2473355884  MEMB      113             0.0000000000
     16051       141  DOPC      C34           -25.7685044924        9.8238169100       -9.5880758097  MEMB      113             0.0000000000
     16052       141  DOPC      H4X           -24.7220482367        9.5275471105       -9.3526150185  MEMB      113             0.0000000000
     16053       141  DOPC      H4Y           -26.4176416149        8.9247244377       -9.4935159457  MEMB      113             0.0000000000
     16054       141  DOPC      C35           -26.3088904475       10.8738250673       -8.6167243198  MEMB      113             0.0000000000
     16055       141  DOPC      H5X           -27.3885986046       11.0137342301       -8.8503240547  MEMB      113             0.0000000000
     16056       141  DOPC      H5Y           -25.7615214079       11.8255534547       -8.8287471935  MEMB      113             0.0000000000
     16057       141  DOPC      C36           -26.2273152821       10.6338330061       -7.1034724711  MEMB      113             0.0000000000
     16058       141  DOPC      H6X           -25.2316881343       10.2925176913       -6.7559995100  MEMB      113             0.0000000000
     16059       141  DOPC      H6Y           -26.4058583551       11.6629673838       -6.7029538200  MEMB      113             0.0000000000
     16060       141  DOPC      C37           -27.3592660072        9.8305484631       -6.4620186025  MEMB      113             0.0000000000
     16061       141  DOPC      H7X           -28.2520173406        9.9129176107       -7.1193771366  MEMB      113             0.0000000000
     16062       141  DOPC      H7Y           -27.0913582990        8.7542548755       -6.3960608839  MEMB      113             0.0000000000
     16063       141  DOPC      C38           -27.7188536548       10.4122655932       -5.0738691382  MEMB      113             0.0000000000
     16064       141  DOPC      H8X           -28.6856918469        9.9711487913       -4.7461690329  MEMB      113             0.0000000000
     16065       141  DOPC      H8Y           -27.9178140812       11.5018571089       -5.1772515840  MEMB      113             0.0000000000
     16066       141  DOPC      C39           -26.6430137557       10.1906198519       -4.0376116812  MEMB      113             0.0000000000
     16067       141  DOPC      H9X           -25.7966577990       10.8973359744       -4.0442646508  MEMB      113             0.0000000000
     16068       141  DOPC      C310          -26.6543027439        9.1784905484       -3.1587084606  MEMB      113             0.0000000000
     16069       141  DOPC      H10X          -25.8081081289        9.0426851400       -2.4641938396  MEMB      113             0.0000000000
     16070       141  DOPC      C311          -27.7398249651        8.1358528850       -3.1046179343  MEMB      113             0.0000000000
     16071       141  DOPC      H11X          -27.3018577555        7.1965024895       -2.7386762097  MEMB      113             0.0000000000
     16072       141  DOPC      H11Y          -28.1421134127        7.9186839117       -4.1219916858  MEMB      113             0.0000000000
     16073       141  DOPC      C312          -28.9266229965        8.4427056014       -2.1845285742  MEMB      113             0.0000000000
     16074       141  DOPC      H12X          -29.4512764854        9.3459049892       -2.5652186055  MEMB      113             0.0000000000
     16075       141  DOPC      H12Y          -28.5437561498        8.6703092347       -1.1673658691  MEMB      113             0.0000000000
     16076       141  DOPC      C313          -29.8975450022        7.2504451634       -2.0941986232  MEMB      113             0.0000000000
     16077       141  DOPC      H13X          -29.6292488648        6.4943956751       -2.8645161252  MEMB      113             0.0000000000
     16078       141  DOPC      H13Y          -29.7610017940        6.7628350903       -1.1043810314  MEMB      113             0.0000000000
     16079       141  DOPC      C314          -31.3682525762        7.6406336275       -2.3031093070  MEMB      113             0.0000000000
     16080       141  DOPC      H14X          -31.4467324311        8.7297626198       -2.0945565314  MEMB      113             0.0000000000
     16081       141  DOPC      H14Y          -31.6379107324        7.5143165911       -3.3694418120  MEMB      113             0.0000000000
     16082       141  DOPC      C315          -32.3541938095        6.9305368036       -1.3558920407  MEMB      113             0.0000000000
     16083       141  DOPC      H15X          -33.1036892871        7.6753699035       -1.0076706908  MEMB      113             0.0000000000
     16084       141  DOPC      H15Y          -31.7973162619        6.6034500711       -0.4502733895  MEMB      113             0.0000000000
     16085       141  DOPC      C316          -33.1503743774        5.7305576676       -1.9130040442  MEMB      113             0.0000000000
     16086       141  DOPC      H16X          -32.5148892162        4.8261149935       -1.9377589330  MEMB      113             0.0000000000
     16087       141  DOPC      H16Y          -33.9617774303        5.5101752526       -1.1824483876  MEMB      113             0.0000000000
     16088       141  DOPC      C317          -33.8016514704        5.9143086961       -3.2905769221  MEMB      113             0.0000000000
     16089       141  DOPC      H17X          -33.0111957343        6.0375896037       -4.0638318730  MEMB      113             0.0000000000
     16090       141  DOPC      H17Y          -34.3481062065        4.9751184144       -3.5405471092  MEMB      113             0.0000000000
     16091       141  DOPC      C318          -34.7734820644        7.0898258655       -3.3522088846  MEMB      113             0.0000000000
     16092       141  DOPC      H18X          -35.5884700593        6.9585261010       -2.6075104124  MEMB      113             0.0000000000
     16093       141  DOPC      H18Y          -34.2490714846        8.0436459563       -3.1270434023  MEMB      113             0.0000000000
     16094       141  DOPC      H18Z          -35.2303511782        7.1753074156       -4.3619732986  MEMB      113             0.0000000000
     16095       142  DOPC      N              32.5094423593        2.0493351556      -21.1248749651  MEMB      114             0.0000000000
     16096       142  DOPC      C12            32.5494556992        3.3471986968      -20.3312028786  MEMB      114             0.0000000000
     16097       142  DOPC      H12A           31.9420341113        3.2107153447      -19.4420849645  MEMB      114             0.0000000000
     16098       142  DOPC      H12B           32.1447610350        4.1504902809      -20.9331081992  MEMB      114             0.0000000000
     16099       142  DOPC      C13            33.3953580820        2.1434747868      -22.3366058841  MEMB      114             0.0000000000
     16100       142  DOPC      H13A           34.4233244193        2.3086933715      -22.0531586344  MEMB      114             0.0000000000
     16101       142  DOPC      H13B           33.3475743588        1.2322753279      -22.9280960918  MEMB      114             0.0000000000
     16102       142  DOPC      H13C           33.0675552270        2.9280252766      -23.0254619723  MEMB      114             0.0000000000
     16103       142  DOPC      C14            31.1332349825        1.7672697447      -21.6352827065  MEMB      114             0.0000000000
     16104       142  DOPC      H14A           30.5011719529        1.3444310594      -20.8663135003  MEMB      114             0.0000000000
     16105       142  DOPC      H14B           30.6752410594        2.6636222221      -22.0432127858  MEMB      114             0.0000000000
     16106       142  DOPC      H14C           31.1963176761        1.0491482790      -22.4508025094  MEMB      114             0.0000000000
     16107       142  DOPC      C15            32.9261590994        0.9042793440      -20.2379520208  MEMB      114             0.0000000000
     16108       142  DOPC      H15A           33.1261016530       -0.0075629815      -20.7795025621  MEMB      114             0.0000000000
     16109       142  DOPC      H15B           32.1652816212        0.6897285143      -19.4954960506  MEMB      114             0.0000000000
     16110       142  DOPC      H15C           33.8085906917        1.1847701068      -19.6491940158  MEMB      114             0.0000000000
     16111       142  DOPC      C11            33.9244387300        3.8319698137      -19.8150533460  MEMB      114             0.0000000000
     16112       142  DOPC      H11A           34.6189409272        3.9857347927      -20.6662115688  MEMB      114             0.0000000000
     16113       142  DOPC      H11B           33.8082465975        4.8243266828      -19.3135368776  MEMB      114             0.0000000000
     16114       142  DOPC      P              34.4749240424        2.9848070298      -17.3728290843  MEMB      114             0.0000000000
     16115       142  DOPC      O13            35.5236709574        3.9608325940      -17.0032527392  MEMB      114             0.0000000000
     16116       142  DOPC      O14            34.5859134614        1.6070489592      -16.8510466252  MEMB      114             0.0000000000
     16117       142  DOPC      O12            34.4919117425        2.8638502336      -18.9587605664  MEMB      114             0.0000000000
     16118       142  DOPC      O11            33.0253742340        3.5942283654      -17.1087964346  MEMB      114             0.0000000000
     16119       142  DOPC      C1             31.8947082220        2.7391759200      -16.9305758878  MEMB      114             0.0000000000
     16120       142  DOPC      HA             32.1442770394        1.6621988345      -17.0807227094  MEMB      114             0.0000000000
     16121       142  DOPC      HB             31.1135103878        3.0114653422      -17.6711907910  MEMB      114             0.0000000000
     16122       142  DOPC      C2             31.2945007563        2.8909624193      -15.5073293758  MEMB      114             0.0000000000
     16123       142  DOPC      HS             30.8549308257        3.9184850040      -15.4729742868  MEMB      114             0.0000000000
     16124       142  DOPC      O21            32.3386557164        2.7121153038      -14.5359914946  MEMB      114             0.0000000000
     16125       142  DOPC      C21            32.0949932346        3.3656529609      -13.4207147044  MEMB      114             0.0000000000
     16126       142  DOPC      O22            31.2018553954        4.1799092787      -13.2487423858  MEMB      114             0.0000000000
     16127       142  DOPC      C22            32.9859276619        2.8286185787      -12.3210189028  MEMB      114             0.0000000000
     16128       142  DOPC      H2R            33.4407465662        3.6877409681      -11.7894772861  MEMB      114             0.0000000000
     16129       142  DOPC      H2S            33.7929727750        2.2145859482      -12.7738721774  MEMB      114             0.0000000000
     16130       142  DOPC      C3             30.1761685767        1.8482678575      -15.2195622284  MEMB      114             0.0000000000
     16131       142  DOPC      HX             29.2934448741        2.1036483372      -15.8429165861  MEMB      114             0.0000000000
     16132       142  DOPC      HY             29.8506968005        1.9489814240      -14.1553405365  MEMB      114             0.0000000000
     16133       142  DOPC      O31            30.6657223807        0.5267245386      -15.5581722119  MEMB      114             0.0000000000
     16134       142  DOPC      C31            30.8196320590       -0.3301676415      -14.5460881575  MEMB      114             0.0000000000
     16135       142  DOPC      O32            30.1341888402       -0.3596396933      -13.5412049493  MEMB      114             0.0000000000
     16136       142  DOPC      C32            32.0511591209       -1.2081843586      -14.8522540705  MEMB      114             0.0000000000
     16137       142  DOPC      H2X            31.8078721667       -1.8296172916      -15.7344018948  MEMB      114             0.0000000000
     16138       142  DOPC      H2Y            32.8809062643       -0.5238734299      -15.1326572917  MEMB      114             0.0000000000
     16139       142  DOPC      C23            32.1138182614        1.9820133703      -11.3708123067  MEMB      114             0.0000000000
     16140       142  DOPC      H3R            32.8040770158        1.4258289754      -10.7063666668  MEMB      114             0.0000000000
     16141       142  DOPC      H3S            31.5507438183        1.2092881669      -11.9404405442  MEMB      114             0.0000000000
     16142       142  DOPC      C24            31.1029907029        2.8329709786      -10.5744332778  MEMB      114             0.0000000000
     16143       142  DOPC      H4R            30.1066574580        2.7731741176      -11.0676949778  MEMB      114             0.0000000000
     16144       142  DOPC      H4S            31.4282956015        3.8987385475      -10.6261692631  MEMB      114             0.0000000000
     16145       142  DOPC      C25            30.9864687365        2.4978825534       -9.0824957368  MEMB      114             0.0000000000
     16146       142  DOPC      H5R            30.5750663610        1.4738046527       -8.9454833736  MEMB      114             0.0000000000
     16147       142  DOPC      H5S            30.2716529099        3.2105969912       -8.6105018495  MEMB      114             0.0000000000
     16148       142  DOPC      C26            32.3560110375        2.6158473419       -8.4096668768  MEMB      114             0.0000000000
     16149       142  DOPC      H6R            32.8406757267        3.5723033265       -8.7049822007  MEMB      114             0.0000000000
     16150       142  DOPC      H6S            33.0008992986        1.7877516103       -8.7745854446  MEMB      114             0.0000000000
     16151       142  DOPC      C27            32.3451537506        2.4845705465       -6.8898245087  MEMB      114             0.0000000000
     16152       142  DOPC      H7R            33.3800508233        2.1696016739       -6.6146808841  MEMB      114             0.0000000000
     16153       142  DOPC      H7S            31.6679082676        1.6556722741       -6.5966236622  MEMB      114             0.0000000000
     16154       142  DOPC      C28            31.9873807612        3.7857305089       -6.1530058154  MEMB      114             0.0000000000
     16155       142  DOPC      H8R            30.8806626376        3.8597041173       -6.0465794979  MEMB      114             0.0000000000
     16156       142  DOPC      H8S            32.3099279404        4.6542363912       -6.7695352887  MEMB      114             0.0000000000
     16157       142  DOPC      C29            32.6972832453        3.8241110197       -4.8233904937  MEMB      114             0.0000000000
     16158       142  DOPC      H9R            33.5731390079        4.4903865325       -4.7733742283  MEMB      114             0.0000000000
     16159       142  DOPC      C210           32.3729397604        3.0901517582       -3.7470640718  MEMB      114             0.0000000000
     16160       142  DOPC      H10R           32.9805135761        3.1819375693       -2.8343160950  MEMB      114             0.0000000000
     16161       142  DOPC      C211           31.2419094944        2.0975570970       -3.6591404810  MEMB      114             0.0000000000
     16162       142  DOPC      H11R           31.5419380988        1.2147565406       -3.0533442686  MEMB      114             0.0000000000
     16163       142  DOPC      H11S           30.9563455531        1.6920221589       -4.6535126391  MEMB      114             0.0000000000
     16164       142  DOPC      C212           29.9931267895        2.7565602181       -3.0459992983  MEMB      114             0.0000000000
     16165       142  DOPC      H12R           29.1549719991        2.0271833553       -3.0814501189  MEMB      114             0.0000000000
     16166       142  DOPC      H12S           29.6962149659        3.6229615636       -3.6771457281  MEMB      114             0.0000000000
     16167       142  DOPC      C213           30.1692930153        3.2205234399       -1.5872166826  MEMB      114             0.0000000000
     16168       142  DOPC      H13R           29.1856653333        3.5491866623       -1.1995876715  MEMB      114             0.0000000000
     16169       142  DOPC      H13S           30.8385880845        4.1083386552       -1.5696343934  MEMB      114             0.0000000000
     16170       142  DOPC      C214           30.7599660224        2.1337290687       -0.6728237969  MEMB      114             0.0000000000
     16171       142  DOPC      H14R           31.8168175102        1.9943286147       -0.9962546111  MEMB      114             0.0000000000
     16172       142  DOPC      H14S           30.2550589426        1.1631027537       -0.8394037369  MEMB      114             0.0000000000
     16173       142  DOPC      C215           30.8110579353        2.4830225011        0.8267298026  MEMB      114             0.0000000000
     16174       142  DOPC      H15R           31.1696732637        3.5306919290        0.9143046833  MEMB      114             0.0000000000
     16175       142  DOPC      H15S           31.5709987611        1.8160397185        1.2954919174  MEMB      114             0.0000000000
     16176       142  DOPC      C216           29.5172907551        2.3796765666        1.6586083198  MEMB      114             0.0000000000
     16177       142  DOPC      H16R           28.8522273718        3.2307410760        1.3958677161  MEMB      114             0.0000000000
     16178       142  DOPC      H16S           29.8015477942        2.5046003385        2.7296945492  MEMB      114             0.0000000000
     16179       142  DOPC      C217           28.7288161810        1.0673812090        1.5458342116  MEMB      114             0.0000000000
     16180       142  DOPC      H17R           28.4172420669        0.9245685371        0.4915701901  MEMB      114             0.0000000000
     16181       142  DOPC      H17S           27.7941983474        1.1762819565        2.1428920522  MEMB      114             0.0000000000
     16182       142  DOPC      C218           29.4613618857       -0.1760164971        2.0547339195  MEMB      114             0.0000000000
     16183       142  DOPC      H18R           28.7821371413       -1.0575617568        2.0389724482  MEMB      114             0.0000000000
     16184       142  DOPC      H18S           29.7998466731       -0.0143162131        3.1007860555  MEMB      114             0.0000000000
     16185       142  DOPC      H18T           30.3477390046       -0.3922106035        1.4203922541  MEMB      114             0.0000000000
     16186       142  DOPC      C33            32.5141107078       -2.1515949136      -13.7059227101  MEMB      114             0.0000000000
     16187       142  DOPC      H3X            33.2255446765       -2.8921293430      -14.1414511183  MEMB      114             0.0000000000
     16188       142  DOPC      H3Y            31.6556296798       -2.7293794224      -13.3007443948  MEMB      114             0.0000000000
     16189       142  DOPC      C34            33.2504884650       -1.4110202926      -12.5771866704  MEMB      114             0.0000000000
     16190       142  DOPC      H4X            32.6817316592       -0.4983195897      -12.3195782007  MEMB      114             0.0000000000
     16191       142  DOPC      H4Y            34.2394932988       -1.0813545085      -12.9672475261  MEMB      114             0.0000000000
     16192       142  DOPC      C35            33.4561874533       -2.2218459781      -11.2859896125  MEMB      114             0.0000000000
     16193       142  DOPC      H5X            34.3121574323       -1.8047012975      -10.7098914935  MEMB      114             0.0000000000
     16194       142  DOPC      H5Y            33.7417300930       -3.2583210457      -11.5412334009  MEMB      114             0.0000000000
     16195       142  DOPC      C36            32.2273826964       -2.2720773471      -10.3605120127  MEMB      114             0.0000000000
     16196       142  DOPC      H6X            31.2872780646       -2.3673778738      -10.9436974199  MEMB      114             0.0000000000
     16197       142  DOPC      H6Y            32.3368977628       -3.2110837371       -9.7770725167  MEMB      114             0.0000000000
     16198       142  DOPC      C37            32.1473741096       -1.0734538759       -9.3940832744  MEMB      114             0.0000000000
     16199       142  DOPC      H7X            33.1682720805       -0.6472594159       -9.2661571008  MEMB      114             0.0000000000
     16200       142  DOPC      H7Y            31.5133956991       -0.2847085079       -9.8556041857  MEMB      114             0.0000000000
     16201       142  DOPC      C38            31.6193510592       -1.4050921523       -7.9811596316  MEMB      114             0.0000000000
     16202       142  DOPC      H8X            30.5471884522       -1.6915946216       -8.0445038060  MEMB      114             0.0000000000
     16203       142  DOPC      H8Y            31.6547794673       -0.4737658885       -7.3728914564  MEMB      114             0.0000000000
     16204       142  DOPC      C39            32.4152304407       -2.5112189248       -7.3333803632  MEMB      114             0.0000000000
     16205       142  DOPC      H9X            32.1930819499       -3.5234628234       -7.6971734297  MEMB      114             0.0000000000
     16206       142  DOPC      C310           33.3373750215       -2.4020704343       -6.3727184576  MEMB      114             0.0000000000
     16207       142  DOPC      H10X           33.8567620066       -3.3087937713       -6.0270108782  MEMB      114             0.0000000000
     16208       142  DOPC      C311           33.7966069436       -1.1436993025       -5.7140306397  MEMB      114             0.0000000000
     16209       142  DOPC      H11X           33.5073731657       -0.2325391133       -6.2835019327  MEMB      114             0.0000000000
     16210       142  DOPC      H11Y           34.8998051558       -1.1659753762       -5.7041550872  MEMB      114             0.0000000000
     16211       142  DOPC      C312           33.2901945132       -1.0047342807       -4.2690457635  MEMB      114             0.0000000000
     16212       142  DOPC      H12X           32.2161763182       -0.7194721069       -4.2682875544  MEMB      114             0.0000000000
     16213       142  DOPC      H12Y           33.8632539974       -0.1426470207       -3.8681692637  MEMB      114             0.0000000000
     16214       142  DOPC      C313           33.4798624827       -2.2622955119       -3.3890138291  MEMB      114             0.0000000000
     16215       142  DOPC      H13X           32.7715513461       -3.0522729169       -3.7262689356  MEMB      114             0.0000000000
     16216       142  DOPC      H13Y           34.5124034912       -2.6452127093       -3.5505400357  MEMB      114             0.0000000000
     16217       142  DOPC      C314           33.2728206594       -2.0459917765       -1.8729543940  MEMB      114             0.0000000000
     16218       142  DOPC      H14X           32.1925434519       -1.8889610968       -1.6617213600  MEMB      114             0.0000000000
     16219       142  DOPC      H14Y           33.5857089505       -2.9671244119       -1.3317271595  MEMB      114             0.0000000000
     16220       142  DOPC      C315           34.0695768845       -0.8364478074       -1.3732342452  MEMB      114             0.0000000000
     16221       142  DOPC      H15X           33.6894530078        0.0469767186       -1.9316987682  MEMB      114             0.0000000000
     16222       142  DOPC      H15Y           35.1441215455       -0.9931326531       -1.6205383023  MEMB      114             0.0000000000
     16223       142  DOPC      C316           33.9256919944       -0.4357315891        0.0972863899  MEMB      114             0.0000000000
     16224       142  DOPC      H16X           32.8674487428       -0.1434768712        0.2841830256  MEMB      114             0.0000000000
     16225       142  DOPC      H16Y           34.1556340964       -1.2909038310        0.7664549692  MEMB      114             0.0000000000
     16226       142  DOPC      C317           34.8585631953        0.7464837714        0.4396643955  MEMB      114             0.0000000000
     16227       142  DOPC      H17X           34.5577383615        1.1601022350        1.4289268444  MEMB      114             0.0000000000
     16228       142  DOPC      H17Y           35.8907277890        0.3391396131        0.5440354419  MEMB      114             0.0000000000
     16229       142  DOPC      C318           34.9114175117        1.8881093537       -0.5918312000  MEMB      114             0.0000000000
     16230       142  DOPC      H18X           35.2602657164        1.5287050622       -1.5836432282  MEMB      114             0.0000000000
     16231       142  DOPC      H18Y           33.9125561367        2.3523765437       -0.7214901309  MEMB      114             0.0000000000
     16232       142  DOPC      H18Z           35.6161542131        2.6784771548       -0.2671878377  MEMB      114             0.0000000000
     16233       143  DOPC      N              35.3852133518       -6.0460917430      -18.0318764650  MEMB      115             0.0000000000
     16234       143  DOPC      C12            34.9440330550       -7.0659713957      -19.0818553409  MEMB      115             0.0000000000
     16235       143  DOPC      H12A           33.9549663078       -7.4269437029      -18.8018010775  MEMB      115             0.0000000000
     16236       143  DOPC      H12B           35.5529769705       -7.9480692082      -19.1189352154  MEMB      115             0.0000000000
     16237       143  DOPC      C13            36.6500370267       -5.3668287915      -18.4430471687  MEMB      115             0.0000000000
     16238       143  DOPC      H13A           37.4270961140       -6.0763115290      -18.7307898279  MEMB      115             0.0000000000
     16239       143  DOPC      H13B           36.4664678218       -4.6844473211      -19.2609169157  MEMB      115             0.0000000000
     16240       143  DOPC      H13C           37.0884918295       -4.8102240873      -17.6244088545  MEMB      115             0.0000000000
     16241       143  DOPC      C14            35.5999843346       -6.6602494456      -16.6962280054  MEMB      115             0.0000000000
     16242       143  DOPC      H14A           34.6841164680       -7.1313396238      -16.3425861552  MEMB      115             0.0000000000
     16243       143  DOPC      H14B           36.3877613308       -7.4052769760      -16.6952731035  MEMB      115             0.0000000000
     16244       143  DOPC      H14C           35.8939632679       -5.9016560861      -15.9709448364  MEMB      115             0.0000000000
     16245       143  DOPC      C15            34.2823656651       -5.0236225475      -17.9503693858  MEMB      115             0.0000000000
     16246       143  DOPC      H15A           33.3692185299       -5.4858507957      -17.5725453039  MEMB      115             0.0000000000
     16247       143  DOPC      H15B           34.0245056350       -4.7248192328      -18.9738490747  MEMB      115             0.0000000000
     16248       143  DOPC      H15C           34.5283848514       -4.1645929604      -17.3571164892  MEMB      115             0.0000000000
     16249       143  DOPC      C11            34.8213787925       -6.5682534707      -20.5345443229  MEMB      115             0.0000000000
     16250       143  DOPC      H11A           35.7546168280       -6.0415969878      -20.8183826227  MEMB      115             0.0000000000
     16251       143  DOPC      H11B           34.7062482412       -7.4177840665      -21.2469416057  MEMB      115             0.0000000000
     16252       143  DOPC      P              32.2643828580       -6.2468311511      -20.6229491687  MEMB      115             0.0000000000
     16253       143  DOPC      O13            32.0374173449       -7.0202839048      -21.8632725351  MEMB      115             0.0000000000
     16254       143  DOPC      O14            31.4054000621       -5.0977429319      -20.3450171609  MEMB      115             0.0000000000
     16255       143  DOPC      O12            33.7361030070       -5.6747696124      -20.6530354553  MEMB      115             0.0000000000
     16256       143  DOPC      O11            32.2774310840       -7.2256396133      -19.3472957019  MEMB      115             0.0000000000
     16257       143  DOPC      C1             31.2251144205       -7.1583638900      -18.3693856145  MEMB      115             0.0000000000
     16258       143  DOPC      HA             30.3970126270       -7.8234727232      -18.7010027264  MEMB      115             0.0000000000
     16259       143  DOPC      HB             30.7806596117       -6.1582390344      -18.3098171953  MEMB      115             0.0000000000
     16260       143  DOPC      C2             31.6213702086       -7.5399005821      -16.8863755748  MEMB      115             0.0000000000
     16261       143  DOPC      HS             30.6561546172       -7.5823635776      -16.3287084790  MEMB      115             0.0000000000
     16262       143  DOPC      O21            32.5152959907       -6.5819619666      -16.2497844483  MEMB      115             0.0000000000
     16263       143  DOPC      C21            32.4767374102       -6.5714183798      -14.8858512915  MEMB      115             0.0000000000
     16264       143  DOPC      O22            31.6312285547       -7.1304220738      -14.2140297818  MEMB      115             0.0000000000
     16265       143  DOPC      C22            33.7844608810       -5.9413650488      -14.3549536009  MEMB      115             0.0000000000
     16266       143  DOPC      H2R            34.0609723202       -5.1057792464      -15.0300842949  MEMB      115             0.0000000000
     16267       143  DOPC      H2S            34.5539781164       -6.7386089229      -14.3978325286  MEMB      115             0.0000000000
     16268       143  DOPC      C3             32.2793973989       -8.9482005668      -16.8657080216  MEMB      115             0.0000000000
     16269       143  DOPC      HX             32.9977662696       -8.9780982085      -17.7160576059  MEMB      115             0.0000000000
     16270       143  DOPC      HY             31.4933637326       -9.7048071000      -17.0804801113  MEMB      115             0.0000000000
     16271       143  DOPC      O31            33.0093705341       -9.1802646510      -15.6410228157  MEMB      115             0.0000000000
     16272       143  DOPC      C31            32.4825462794       -9.9934029440      -14.7362933234  MEMB      115             0.0000000000
     16273       143  DOPC      O32            31.6277381561      -10.8384018141      -14.9704004436  MEMB      115             0.0000000000
     16274       143  DOPC      C32            33.3154489390       -9.9355016880      -13.4491353967  MEMB      115             0.0000000000
     16275       143  DOPC      H2X            33.9315957646      -10.8579233766      -13.4051134012  MEMB      115             0.0000000000
     16276       143  DOPC      H2Y            34.0098887269       -9.0699091042      -13.4990361281  MEMB      115             0.0000000000
     16277       143  DOPC      C23            33.8124011634       -5.4302138097      -12.8946501112  MEMB      115             0.0000000000
     16278       143  DOPC      H3R            32.8440036108       -4.9556084629      -12.6240348063  MEMB      115             0.0000000000
     16279       143  DOPC      H3S            34.6085318019       -4.6509213206      -12.8384151798  MEMB      115             0.0000000000
     16280       143  DOPC      C24            34.2100012420       -6.5113934835      -11.8788366714  MEMB      115             0.0000000000
     16281       143  DOPC      H4R            35.1961597151       -6.9531467680      -12.1384665659  MEMB      115             0.0000000000
     16282       143  DOPC      H4S            33.4429065043       -7.3088668021      -11.9733925689  MEMB      115             0.0000000000
     16283       143  DOPC      C25            34.2101941107       -6.0546156367      -10.4078441215  MEMB      115             0.0000000000
     16284       143  DOPC      H5R            34.1039112937       -6.9467891894       -9.7654603751  MEMB      115             0.0000000000
     16285       143  DOPC      H5S            33.3346938138       -5.3962373658      -10.2226244707  MEMB      115             0.0000000000
     16286       143  DOPC      C26            35.4969374871       -5.4132859555       -9.8778084933  MEMB      115             0.0000000000
     16287       143  DOPC      H6R            35.8516791570       -4.6963636057      -10.6438312401  MEMB      115             0.0000000000
     16288       143  DOPC      H6S            36.2897384996       -6.1864508960       -9.7633999129  MEMB      115             0.0000000000
     16289       143  DOPC      C27            35.2983126177       -4.6922886591       -8.5225694513  MEMB      115             0.0000000000
     16290       143  DOPC      H7R            34.4584169818       -3.9711430329       -8.6230987751  MEMB      115             0.0000000000
     16291       143  DOPC      H7S            36.2091452724       -4.0845083804       -8.3189148712  MEMB      115             0.0000000000
     16292       143  DOPC      C28            35.0864324244       -5.6109673434       -7.2919306520  MEMB      115             0.0000000000
     16293       143  DOPC      H8R            35.4529600625       -5.0736244968       -6.3891598723  MEMB      115             0.0000000000
     16294       143  DOPC      H8S            35.7264708454       -6.5133154690       -7.4157194207  MEMB      115             0.0000000000
     16295       143  DOPC      C29            33.6500556445       -6.0196482631       -7.0967731095  MEMB      115             0.0000000000
     16296       143  DOPC      H9R            33.1172008839       -6.2236134621       -8.0355301788  MEMB      115             0.0000000000
     16297       143  DOPC      C210           32.9427555680       -6.1062478932       -5.9532840906  MEMB      115             0.0000000000
     16298       143  DOPC      H10R           31.8898337526       -6.4200928335       -6.0197791975  MEMB      115             0.0000000000
     16299       143  DOPC      C211           33.3830440761       -5.8191368840       -4.5472880288  MEMB      115             0.0000000000
     16300       143  DOPC      H11R           32.4784820484       -5.7197744098       -3.9048783715  MEMB      115             0.0000000000
     16301       143  DOPC      H11S           33.9055370402       -4.8413542126       -4.5140277107  MEMB      115             0.0000000000
     16302       143  DOPC      C212           34.3038999566       -6.8582063872       -3.8925012157  MEMB      115             0.0000000000
     16303       143  DOPC      H12R           35.1502992346       -7.0871781017       -4.5808149136  MEMB      115             0.0000000000
     16304       143  DOPC      H12S           33.7565463494       -7.8111881050       -3.7164556572  MEMB      115             0.0000000000
     16305       143  DOPC      C213           34.8776068174       -6.3149417090       -2.5711880228  MEMB      115             0.0000000000
     16306       143  DOPC      H13R           35.4192721462       -5.3685887570       -2.7979298991  MEMB      115             0.0000000000
     16307       143  DOPC      H13S           35.6216624083       -7.0380899098       -2.1815639197  MEMB      115             0.0000000000
     16308       143  DOPC      C214           33.8448430902       -6.0316740699       -1.4597972076  MEMB      115             0.0000000000
     16309       143  DOPC      H14R           33.1106566910       -5.2724869133       -1.8056571261  MEMB      115             0.0000000000
     16310       143  DOPC      H14S           34.3897063669       -5.6038646468       -0.5888374566  MEMB      115             0.0000000000
     16311       143  DOPC      C215           33.0903908921       -7.2872405620       -1.0021717538  MEMB      115             0.0000000000
     16312       143  DOPC      H15R           33.8333229730       -8.1076120817       -0.8935570973  MEMB      115             0.0000000000
     16313       143  DOPC      H15S           32.4051788237       -7.5973574651       -1.8137895688  MEMB      115             0.0000000000
     16314       143  DOPC      C216           32.2954808621       -7.1420761384        0.3128887696  MEMB      115             0.0000000000
     16315       143  DOPC      H16R           32.9894847810       -6.9169922339        1.1485286945  MEMB      115             0.0000000000
     16316       143  DOPC      H16S           31.8149558505       -8.1190452411        0.5425550631  MEMB      115             0.0000000000
     16317       143  DOPC      C217           31.2295197884       -6.0386949703        0.3502023202  MEMB      115             0.0000000000
     16318       143  DOPC      H17R           31.7390877605       -5.0546526833        0.2399773087  MEMB      115             0.0000000000
     16319       143  DOPC      H17S           30.7648690008       -6.0586492103        1.3652321318  MEMB      115             0.0000000000
     16320       143  DOPC      C218           30.1252971028       -6.1646179763       -0.7004027752  MEMB      115             0.0000000000
     16321       143  DOPC      H18R           29.4778119608       -5.2621784813       -0.6797867733  MEMB      115             0.0000000000
     16322       143  DOPC      H18S           29.4890952493       -7.0524361462       -0.4989803058  MEMB      115             0.0000000000
     16323       143  DOPC      H18T           30.5566788704       -6.2649351716       -1.7188091156  MEMB      115             0.0000000000
     16324       143  DOPC      C33            32.4864320239       -9.8282488874      -12.1402060344  MEMB      115             0.0000000000
     16325       143  DOPC      H3X            31.6584430097      -10.5610657017      -12.1145945845  MEMB      115             0.0000000000
     16326       143  DOPC      H3Y            32.0003860828       -8.8272724213      -12.0999367629  MEMB      115             0.0000000000
     16327       143  DOPC      C34            33.3783741226      -10.0146689529      -10.8941615108  MEMB      115             0.0000000000
     16328       143  DOPC      H4X            34.4027851494       -9.6662118687      -11.1781616654  MEMB      115             0.0000000000
     16329       143  DOPC      H4Y            33.4702464722      -11.0806532215      -10.6093273529  MEMB      115             0.0000000000
     16330       143  DOPC      C35            32.9906780881       -9.1556164352       -9.6781860499  MEMB      115             0.0000000000
     16331       143  DOPC      H5X            32.5142276373       -8.2158034614      -10.0360567691  MEMB      115             0.0000000000
     16332       143  DOPC      H5Y            33.9351679223       -8.8979040629       -9.1391840856  MEMB      115             0.0000000000
     16333       143  DOPC      C36            32.0733867322       -9.7562739952       -8.6151410094  MEMB      115             0.0000000000
     16334       143  DOPC      H6X            31.0448648486       -9.8403066176       -9.0179618164  MEMB      115             0.0000000000
     16335       143  DOPC      H6Y            32.4420266808      -10.7555138146       -8.2982284984  MEMB      115             0.0000000000
     16336       143  DOPC      C37            31.9648664484       -8.8091050017       -7.4181872051  MEMB      115             0.0000000000
     16337       143  DOPC      H7X            32.9161128718       -8.8072744871       -6.8397954387  MEMB      115             0.0000000000
     16338       143  DOPC      H7Y            31.8062863982       -7.7960410619       -7.8517233084  MEMB      115             0.0000000000
     16339       143  DOPC      C38            30.7676156254       -9.0610744519       -6.5010735512  MEMB      115             0.0000000000
     16340       143  DOPC      H8X            29.8418058843       -8.9736652492       -7.1118760979  MEMB      115             0.0000000000
     16341       143  DOPC      H8Y            30.7291750395       -8.2486166630       -5.7401817413  MEMB      115             0.0000000000
     16342       143  DOPC      C39            30.8684265561      -10.4218835464       -5.8728069172  MEMB      115             0.0000000000
     16343       143  DOPC      H9X            31.2500358841      -11.2167252776       -6.5300879403  MEMB      115             0.0000000000
     16344       143  DOPC      C310           30.4500013427      -10.7470513519       -4.6439267134  MEMB      115             0.0000000000
     16345       143  DOPC      H10X           30.6012879534      -11.7805018516       -4.2977090350  MEMB      115             0.0000000000
     16346       143  DOPC      C311           29.7994481428       -9.8129890841       -3.6533002119  MEMB      115             0.0000000000
     16347       143  DOPC      H11X           28.8387677186      -10.2435922470       -3.3047536868  MEMB      115             0.0000000000
     16348       143  DOPC      H11Y           29.5530055172       -8.8228957156       -4.0968041959  MEMB      115             0.0000000000
     16349       143  DOPC      C312           30.7234847330       -9.5913316300       -2.4453751943  MEMB      115             0.0000000000
     16350       143  DOPC      H12X           30.3306979705       -8.7501098996       -1.8317534792  MEMB      115             0.0000000000
     16351       143  DOPC      H12Y           31.7343379370       -9.3045985768       -2.8112643151  MEMB      115             0.0000000000
     16352       143  DOPC      C313           30.8178984530      -10.8336864120       -1.5533292846  MEMB      115             0.0000000000
     16353       143  DOPC      H13X           29.9830748519      -10.8079592040       -0.8240765364  MEMB      115             0.0000000000
     16354       143  DOPC      H13Y           30.6475114328      -11.7341441518       -2.1709475055  MEMB      115             0.0000000000
     16355       143  DOPC      C314           32.1460816958      -11.0175138493       -0.8039198427  MEMB      115             0.0000000000
     16356       143  DOPC      H14X           32.9807574802      -11.1401955032       -1.5299614083  MEMB      115             0.0000000000
     16357       143  DOPC      H14Y           32.3492094716      -10.1039286632       -0.2082207461  MEMB      115             0.0000000000
     16358       143  DOPC      C315           32.0401154869      -12.2472227799        0.1142547944  MEMB      115             0.0000000000
     16359       143  DOPC      H15X           31.9232631558      -13.1452157094       -0.5285375256  MEMB      115             0.0000000000
     16360       143  DOPC      H15Y           31.1097939055      -12.1474699311        0.7165153434  MEMB      115             0.0000000000
     16361       143  DOPC      C316           33.2174455581      -12.5162664915        1.0651880012  MEMB      115             0.0000000000
     16362       143  DOPC      H16X           32.9859140334      -13.4451241498        1.6344582441  MEMB      115             0.0000000000
     16363       143  DOPC      H16Y           34.1356591736      -12.6997340712        0.4635423472  MEMB      115             0.0000000000
     16364       143  DOPC      C317           33.4852747884      -11.4068973203        2.0869809254  MEMB      115             0.0000000000
     16365       143  DOPC      H17X           34.4866643678      -11.5665170898        2.5471218032  MEMB      115             0.0000000000
     16366       143  DOPC      H17Y           33.5174885916      -10.4470382356        1.5359629745  MEMB      115             0.0000000000
     16367       143  DOPC      C318           32.4378020013      -11.3004442237        3.1955121251  MEMB      115             0.0000000000
     16368       143  DOPC      H18X           32.4207116560      -12.2125711653        3.8277650285  MEMB      115             0.0000000000
     16369       143  DOPC      H18Y           32.6471577435      -10.4189583281        3.8405234803  MEMB      115             0.0000000000
     16370       143  DOPC      H18Z           31.4334156096      -11.1790132414        2.7400112841  MEMB      115             0.0000000000
     16371       144  DOPC      N              11.0013730503      -34.4886284261      -19.3746004805  MEMB      116             0.0000000000
     16372       144  DOPC      C12            12.4455363900      -34.9099020496      -19.5557700901  MEMB      116             0.0000000000
     16373       144  DOPC      H12A           12.7084207852      -34.7899728064      -20.6057095291  MEMB      116             0.0000000000
     16374       144  DOPC      H12B           12.5252974010      -35.9714469742      -19.3374297898  MEMB      116             0.0000000000
     16375       144  DOPC      C13            10.5662036978      -34.7486957089      -17.9795115075  MEMB      116             0.0000000000
     16376       144  DOPC      H13A           11.1491786774      -34.1265679334      -17.3072747685  MEMB      116             0.0000000000
     16377       144  DOPC      H13B            9.5087331486      -34.6174636032      -17.8278362329  MEMB      116             0.0000000000
     16378       144  DOPC      H13C           10.8068911344      -35.7644631184      -17.6495934578  MEMB      116             0.0000000000
     16379       144  DOPC      C14            10.1754279596      -35.3323467773      -20.2781069794  MEMB      116             0.0000000000
     16380       144  DOPC      H14A           10.2617473580      -36.3837503245      -19.9914416041  MEMB      116             0.0000000000
     16381       144  DOPC      H14B            9.1356986552      -35.0544476137      -20.2023353171  MEMB      116             0.0000000000
     16382       144  DOPC      H14C           10.4983352869      -35.2240496746      -21.3111270107  MEMB      116             0.0000000000
     16383       144  DOPC      C15            10.8906749792      -33.0358085551      -19.7289175378  MEMB      116             0.0000000000
     16384       144  DOPC      H15A           11.8553018252      -32.5643102281      -19.5083785801  MEMB      116             0.0000000000
     16385       144  DOPC      H15B           10.1683834542      -32.5012511396      -19.1474551866  MEMB      116             0.0000000000
     16386       144  DOPC      H15C           10.6891784852      -32.9185293759      -20.7854351247  MEMB      116             0.0000000000
     16387       144  DOPC      C11            13.5292456339      -34.1520512215      -18.7799255865  MEMB      116             0.0000000000
     16388       144  DOPC      H11A           13.2668892385      -34.1413092217      -17.7089295440  MEMB      116             0.0000000000
     16389       144  DOPC      H11B           14.4934645591      -34.7088153517      -18.8933983326  MEMB      116             0.0000000000
     16390       144  DOPC      P              14.7360455932      -31.9159431063      -18.6037500875  MEMB      116             0.0000000000
     16391       144  DOPC      O13            14.6741739650      -30.5749914906      -19.2283484205  MEMB      116             0.0000000000
     16392       144  DOPC      O14            16.0217126990      -32.6481612739      -18.5864136890  MEMB      116             0.0000000000
     16393       144  DOPC      O12            13.6373743151      -32.8219428303      -19.2923327280  MEMB      116             0.0000000000
     16394       144  DOPC      O11            14.1062861945      -31.8644894646      -17.1488878637  MEMB      116             0.0000000000
     16395       144  DOPC      C1             13.2532439369      -30.7467858103      -16.8599117817  MEMB      116             0.0000000000
     16396       144  DOPC      HA             12.6658047410      -30.4297032028      -17.7572069993  MEMB      116             0.0000000000
     16397       144  DOPC      HB             13.8957207173      -29.9051082552      -16.5284299946  MEMB      116             0.0000000000
     16398       144  DOPC      C2             12.1802449380      -30.9715127584      -15.7608786818  MEMB      116             0.0000000000
     16399       144  DOPC      HS             11.2288822090      -30.5318383628      -16.1457864654  MEMB      116             0.0000000000
     16400       144  DOPC      O21            12.5868641632      -30.3129826720      -14.5607054587  MEMB      116             0.0000000000
     16401       144  DOPC      C21            11.9652773587      -29.2632999814      -14.0716401745  MEMB      116             0.0000000000
     16402       144  DOPC      O22            11.1478328204      -28.5594656814      -14.6329043485  MEMB      116             0.0000000000
     16403       144  DOPC      C22            12.3299799489      -29.1332009020      -12.5998303024  MEMB      116             0.0000000000
     16404       144  DOPC      H2R            11.4207786580      -28.6905294056      -12.1350132148  MEMB      116             0.0000000000
     16405       144  DOPC      H2S            13.1493849917      -28.4175149227      -12.4704038793  MEMB      116             0.0000000000
     16406       144  DOPC      C3             11.9008031721      -32.4779703520      -15.4479083307  MEMB      116             0.0000000000
     16407       144  DOPC      HX             11.2883832630      -32.8433610436      -16.2942993117  MEMB      116             0.0000000000
     16408       144  DOPC      HY             11.2931711751      -32.5238613574      -14.5207961429  MEMB      116             0.0000000000
     16409       144  DOPC      O31            13.0790061420      -33.2823619413      -15.2476262410  MEMB      116             0.0000000000
     16410       144  DOPC      C31            12.9094318005      -34.5849118306      -15.3657942591  MEMB      116             0.0000000000
     16411       144  DOPC      O32            11.8439870555      -35.1504579409      -15.5425284263  MEMB      116             0.0000000000
     16412       144  DOPC      C32            14.2403541956      -35.2927031206      -15.2108663121  MEMB      116             0.0000000000
     16413       144  DOPC      H2X            14.0825380747      -36.3664168571      -15.4503764014  MEMB      116             0.0000000000
     16414       144  DOPC      H2Y            14.9853391788      -34.8509408909      -15.9054187255  MEMB      116             0.0000000000
     16415       144  DOPC      C23            12.6071678583      -30.4664721045      -11.8658529521  MEMB      116             0.0000000000
     16416       144  DOPC      H3R            11.6546346616      -31.0439399447      -11.8798984555  MEMB      116             0.0000000000
     16417       144  DOPC      H3S            12.8149104478      -30.1841472569      -10.8113741904  MEMB      116             0.0000000000
     16418       144  DOPC      C24            13.6918645111      -31.4595772228      -12.3617426485  MEMB      116             0.0000000000
     16419       144  DOPC      H4R            14.2063545877      -31.1368746603      -13.2913918203  MEMB      116             0.0000000000
     16420       144  DOPC      H4S            13.1757891893      -32.4181550716      -12.6097716239  MEMB      116             0.0000000000
     16421       144  DOPC      C25            14.8001006964      -31.7858824463      -11.3620499774  MEMB      116             0.0000000000
     16422       144  DOPC      H5R            15.5168475615      -30.9393159914      -11.4186461625  MEMB      116             0.0000000000
     16423       144  DOPC      H5S            15.3572656750      -32.6885827867      -11.7009125716  MEMB      116             0.0000000000
     16424       144  DOPC      C26            14.3539403377      -31.9440888765       -9.9028945296  MEMB      116             0.0000000000
     16425       144  DOPC      H6R            14.3385463073      -30.9203152644       -9.4625156979  MEMB      116             0.0000000000
     16426       144  DOPC      H6S            15.1352855084      -32.5131185577       -9.3534597494  MEMB      116             0.0000000000
     16427       144  DOPC      C27            12.9785674275      -32.5930573415       -9.6337695604  MEMB      116             0.0000000000
     16428       144  DOPC      H7R            13.0823687260      -33.6891985214       -9.6195539816  MEMB      116             0.0000000000
     16429       144  DOPC      H7S            12.2376796902      -32.4112781584      -10.4272793197  MEMB      116             0.0000000000
     16430       144  DOPC      C28            12.3949080911      -32.1060686117       -8.3059495056  MEMB      116             0.0000000000
     16431       144  DOPC      H8R            11.3633890908      -32.4882154255       -8.1564782353  MEMB      116             0.0000000000
     16432       144  DOPC      H8S            12.3499985010      -30.9881467002       -8.3125142656  MEMB      116             0.0000000000
     16433       144  DOPC      C29            13.3497712211      -32.6930880641       -7.3058642153  MEMB      116             0.0000000000
     16434       144  DOPC      H9R            13.5846254199      -33.7533312852       -7.4574864784  MEMB      116             0.0000000000
     16435       144  DOPC      C210           13.8338042783      -32.1000677027       -6.2254934612  MEMB      116             0.0000000000
     16436       144  DOPC      H10R           14.4804973716      -32.6669057542       -5.5347687529  MEMB      116             0.0000000000
     16437       144  DOPC      C211           13.4715544703      -30.7150513645       -5.8203784380  MEMB      116             0.0000000000
     16438       144  DOPC      H11R           12.4543303456      -30.4048959767       -6.1538729210  MEMB      116             0.0000000000
     16439       144  DOPC      H11S           14.2197490656      -29.9604577097       -6.1666572192  MEMB      116             0.0000000000
     16440       144  DOPC      C212           13.4594841558      -30.7138687781       -4.3058693966  MEMB      116             0.0000000000
     16441       144  DOPC      H12R           13.0003533924      -29.7245840573       -4.0609521938  MEMB      116             0.0000000000
     16442       144  DOPC      H12S           14.5255214387      -30.7674333674       -3.9867748746  MEMB      116             0.0000000000
     16443       144  DOPC      C213           12.6810298251      -31.7741883434       -3.4964910981  MEMB      116             0.0000000000
     16444       144  DOPC      H13R           12.4260388651      -32.5736956425       -4.1785452133  MEMB      116             0.0000000000
     16445       144  DOPC      H13S           11.7338163066      -31.3133113804       -3.1408033452  MEMB      116             0.0000000000
     16446       144  DOPC      C214           13.4299098977      -32.4375113439       -2.3189438268  MEMB      116             0.0000000000
     16447       144  DOPC      H14R           14.1961499432      -31.7222886069       -1.9738836078  MEMB      116             0.0000000000
     16448       144  DOPC      H14S           13.9983275359      -33.3463052223       -2.6171896210  MEMB      116             0.0000000000
     16449       144  DOPC      C215           12.5548400856      -32.7453969950       -1.0904305409  MEMB      116             0.0000000000
     16450       144  DOPC      H15R           12.5488631871      -33.8429498760       -0.9000430005  MEMB      116             0.0000000000
     16451       144  DOPC      H15S           11.5150605405      -32.4049818636       -1.2750176835  MEMB      116             0.0000000000
     16452       144  DOPC      C216           13.0993968814      -31.9727772731        0.1113631990  MEMB      116             0.0000000000
     16453       144  DOPC      H16R           12.9501685651      -30.8886021097       -0.0849690637  MEMB      116             0.0000000000
     16454       144  DOPC      H16S           14.1924446463      -32.1851034592        0.1229958644  MEMB      116             0.0000000000
     16455       144  DOPC      C217           12.6013432001      -32.2911561271        1.5217793169  MEMB      116             0.0000000000
     16456       144  DOPC      H17R           12.5660128615      -33.3893820704        1.6857696944  MEMB      116             0.0000000000
     16457       144  DOPC      H17S           11.5722861413      -31.9005661495        1.6934202944  MEMB      116             0.0000000000
     16458       144  DOPC      C218           13.5728108598      -31.6667837625        2.5197945614  MEMB      116             0.0000000000
     16459       144  DOPC      H18R           13.5828261656      -32.2093385602        3.4865309218  MEMB      116             0.0000000000
     16460       144  DOPC      H18S           13.2964323133      -30.6139574928        2.7002499212  MEMB      116             0.0000000000
     16461       144  DOPC      H18T           14.6043222017      -31.6538697076        2.1014932662  MEMB      116             0.0000000000
     16462       144  DOPC      C33            14.6730577049      -35.1249273059      -13.7493786164  MEMB      116             0.0000000000
     16463       144  DOPC      H3X            15.0252418327      -34.0831480644      -13.5650450925  MEMB      116             0.0000000000
     16464       144  DOPC      H3Y            15.5227057125      -35.8056198094      -13.5271916964  MEMB      116             0.0000000000
     16465       144  DOPC      C34            13.4996049188      -35.4278827494      -12.8108871691  MEMB      116             0.0000000000
     16466       144  DOPC      H4X            12.9814411713      -36.3558908522      -13.1463669885  MEMB      116             0.0000000000
     16467       144  DOPC      H4Y            12.7487647879      -34.6016801754      -12.8273047951  MEMB      116             0.0000000000
     16468       144  DOPC      C35            13.9397770523      -35.6164697009      -11.3783463019  MEMB      116             0.0000000000
     16469       144  DOPC      H5X            14.3409131111      -34.6578255334      -10.9838242156  MEMB      116             0.0000000000
     16470       144  DOPC      H5Y            14.7670836508      -36.3593578084      -11.3393897742  MEMB      116             0.0000000000
     16471       144  DOPC      C36            12.7666483397      -36.1092634567      -10.5372282937  MEMB      116             0.0000000000
     16472       144  DOPC      H6X            11.9394302581      -35.3638182715      -10.5492178672  MEMB      116             0.0000000000
     16473       144  DOPC      H6Y            12.3769878498      -37.0546491231      -10.9768005098  MEMB      116             0.0000000000
     16474       144  DOPC      C37            13.2428060272      -36.3639769700       -9.1169097385  MEMB      116             0.0000000000
     16475       144  DOPC      H7X            14.1587875382      -36.9921462740       -9.1982565385  MEMB      116             0.0000000000
     16476       144  DOPC      H7Y            13.5158228640      -35.4048786279       -8.6348763894  MEMB      116             0.0000000000
     16477       144  DOPC      C38            12.2524376286      -37.1020850625       -8.2374186211  MEMB      116             0.0000000000
     16478       144  DOPC      H8X            12.7744112193      -37.4168384837       -7.3048307415  MEMB      116             0.0000000000
     16479       144  DOPC      H8Y            11.9854456188      -38.0263011749       -8.7976607824  MEMB      116             0.0000000000
     16480       144  DOPC      C39            11.0225435454      -36.2845576294       -7.9528663137  MEMB      116             0.0000000000
     16481       144  DOPC      H9X            10.4288946947      -36.0292118809       -8.8420182934  MEMB      116             0.0000000000
     16482       144  DOPC      C310           10.6035652005      -35.8160561045       -6.7698923629  MEMB      116             0.0000000000
     16483       144  DOPC      H10X            9.6066488300      -35.3646403587       -6.7319761991  MEMB      116             0.0000000000
     16484       144  DOPC      C311           11.2267596385      -35.9624610544       -5.4099115718  MEMB      116             0.0000000000
     16485       144  DOPC      H11X           12.1414312640      -36.5914877897       -5.4174796196  MEMB      116             0.0000000000
     16486       144  DOPC      H11Y           10.5035637555      -36.3763000058       -4.6903969066  MEMB      116             0.0000000000
     16487       144  DOPC      C312           11.4975556341      -34.6189027101       -4.7783722320  MEMB      116             0.0000000000
     16488       144  DOPC      H12X           12.1566736074      -34.0740460731       -5.4827802527  MEMB      116             0.0000000000
     16489       144  DOPC      H12Y           12.0593226985      -34.7416904300       -3.8247388321  MEMB      116             0.0000000000
     16490       144  DOPC      C313           10.2269267147      -33.7901861796       -4.5265557458  MEMB      116             0.0000000000
     16491       144  DOPC      H13X           10.4471520351      -32.7400309305       -4.8275639255  MEMB      116             0.0000000000
     16492       144  DOPC      H13Y            9.3859575887      -34.1225307857       -5.1606979341  MEMB      116             0.0000000000
     16493       144  DOPC      C314            9.7166919944      -33.7745103396       -3.0820980712  MEMB      116             0.0000000000
     16494       144  DOPC      H14X            9.1570706574      -34.6966421550       -2.8528033584  MEMB      116             0.0000000000
     16495       144  DOPC      H14Y           10.5666631737      -33.7100226886       -2.3848436751  MEMB      116             0.0000000000
     16496       144  DOPC      C315            8.7606584835      -32.5989064889       -2.9160672573  MEMB      116             0.0000000000
     16497       144  DOPC      H15X            8.1259184048      -32.5893739104       -3.8318679917  MEMB      116             0.0000000000
     16498       144  DOPC      H15Y            9.3744415867      -31.6860579634       -2.9581470326  MEMB      116             0.0000000000
     16499       144  DOPC      C316            7.7733404082      -32.6405137569       -1.7457163404  MEMB      116             0.0000000000
     16500       144  DOPC      H16X            6.7682412349      -32.4073768174       -2.1561592598  MEMB      116             0.0000000000
     16501       144  DOPC      H16Y            7.6973749624      -33.6754156120       -1.3518975035  MEMB      116             0.0000000000
     16502       144  DOPC      C317            8.0123257872      -31.6448340055       -0.6060143544  MEMB      116             0.0000000000
     16503       144  DOPC      H17X            7.0312164817      -31.4006586348       -0.1336398438  MEMB      116             0.0000000000
     16504       144  DOPC      H17Y            8.6164086776      -32.1178144817        0.1752190049  MEMB      116             0.0000000000
     16505       144  DOPC      C318            8.7867158981      -30.3770001011       -0.9169267922  MEMB      116             0.0000000000
     16506       144  DOPC      H18X            9.7271898457      -30.5480870184       -1.4725872312  MEMB      116             0.0000000000
     16507       144  DOPC      H18Y            8.1486967814      -29.6320080996       -1.4356050136  MEMB      116             0.0000000000
     16508       144  DOPC      H18Z            9.1551088536      -29.9827928977        0.0417983430  MEMB      116             0.0000000000
     16509       145  DOPC      N              30.3842632308       11.6803090994      -20.8574108328  MEMB      117             0.0000000000
     16510       145  DOPC      C12            30.5433323448       12.7867507729      -19.8319997629  MEMB      117             0.0000000000
     16511       145  DOPC      H12A           29.7822985821       12.6546664663      -19.0687056652  MEMB      117             0.0000000000
     16512       145  DOPC      H12B           30.3686703670       13.7524478703      -20.2975402033  MEMB      117             0.0000000000
     16513       145  DOPC      C13            29.3479720375       12.0223550346      -21.8618230850  MEMB      117             0.0000000000
     16514       145  DOPC      H13A           29.6411552419       12.8667792570      -22.4733204958  MEMB      117             0.0000000000
     16515       145  DOPC      H13B           29.2644788019       11.1877070914      -22.5540120367  MEMB      117             0.0000000000
     16516       145  DOPC      H13C           28.3835418572       12.1939512107      -21.4119412712  MEMB      117             0.0000000000
     16517       145  DOPC      C14            30.1046741013       10.3572082197      -20.2187004339  MEMB      117             0.0000000000
     16518       145  DOPC      H14A           30.9798580144       10.0981068277      -19.6140306529  MEMB      117             0.0000000000
     16519       145  DOPC      H14B           29.2482040316       10.3917766971      -19.5760753273  MEMB      117             0.0000000000
     16520       145  DOPC      H14C           29.9986666730        9.5844142936      -20.9766786406  MEMB      117             0.0000000000
     16521       145  DOPC      C15            31.6541532508       11.4351032415      -21.5968705531  MEMB      117             0.0000000000
     16522       145  DOPC      H15A           31.8797950217       12.2099987621      -22.3134664056  MEMB      117             0.0000000000
     16523       145  DOPC      H15B           31.6038846673       10.4886970908      -22.1344465339  MEMB      117             0.0000000000
     16524       145  DOPC      H15C           32.4785767760       11.3539684442      -20.8913349926  MEMB      117             0.0000000000
     16525       145  DOPC      C11            31.9159019113       12.8648399785      -19.1376607382  MEMB      117             0.0000000000
     16526       145  DOPC      H11A           32.6842727632       13.2578477883      -19.8219859972  MEMB      117             0.0000000000
     16527       145  DOPC      H11B           31.8691353764       13.5919088281      -18.2876858972  MEMB      117             0.0000000000
     16528       145  DOPC      P              32.7551548155       11.1633235372      -17.3381451535  MEMB      117             0.0000000000
     16529       145  DOPC      O13            33.4776924064       12.3039966713      -16.7328596458  MEMB      117             0.0000000000
     16530       145  DOPC      O14            33.4689393624        9.8896916421      -17.5162152494  MEMB      117             0.0000000000
     16531       145  DOPC      O12            32.3497531521       11.5722224636      -18.7901362154  MEMB      117             0.0000000000
     16532       145  DOPC      O11            31.3480810934       10.9172471783      -16.6637610855  MEMB      117             0.0000000000
     16533       145  DOPC      C1             30.3949365378       11.9694865668      -16.5619706046  MEMB      117             0.0000000000
     16534       145  DOPC      HA             29.5907488272       11.8088904424      -17.3128115043  MEMB      117             0.0000000000
     16535       145  DOPC      HB             30.8190023572       12.9878447707      -16.7100776279  MEMB      117             0.0000000000
     16536       145  DOPC      C2             29.7399563704       11.9631227413      -15.1749092713  MEMB      117             0.0000000000
     16537       145  DOPC      HS             28.8954348096       12.6897622115      -15.2245300998  MEMB      117             0.0000000000
     16538       145  DOPC      O21            30.6472963951       12.3195586022      -14.1198507051  MEMB      117             0.0000000000
     16539       145  DOPC      C21            30.9632541997       13.5975509324      -14.0832540762  MEMB      117             0.0000000000
     16540       145  DOPC      O22            30.5358453395       14.4568935253      -14.8377864053  MEMB      117             0.0000000000
     16541       145  DOPC      C22            31.8438587440       13.8581131930      -12.8615993690  MEMB      117             0.0000000000
     16542       145  DOPC      H2R            32.6787406482       14.5050639008      -13.2016977949  MEMB      117             0.0000000000
     16543       145  DOPC      H2S            32.2660152446       12.9009872445      -12.4963323680  MEMB      117             0.0000000000
     16544       145  DOPC      C3             29.1752904367       10.5656893601      -14.8573661620  MEMB      117             0.0000000000
     16545       145  DOPC      HX             30.0348023761        9.8550732491      -14.8578243029  MEMB      117             0.0000000000
     16546       145  DOPC      HY             28.4592619213       10.2340351008      -15.6377533668  MEMB      117             0.0000000000
     16547       145  DOPC      O31            28.5799493611       10.5459225915      -13.5603468645  MEMB      117             0.0000000000
     16548       145  DOPC      C31            27.5464109772       11.3395768663      -13.3746223389  MEMB      117             0.0000000000
     16549       145  DOPC      O32            26.9260432526       11.9591203760      -14.2252844357  MEMB      117             0.0000000000
     16550       145  DOPC      C32            27.2322429855       11.3487111519      -11.8970323759  MEMB      117             0.0000000000
     16551       145  DOPC      H2X            28.0425985194       10.8583486414      -11.3167586306  MEMB      117             0.0000000000
     16552       145  DOPC      H2Y            27.1758996261       12.4083296614      -11.5719444926  MEMB      117             0.0000000000
     16553       145  DOPC      C23            31.0657716730       14.5886834430      -11.7383115173  MEMB      117             0.0000000000
     16554       145  DOPC      H3R            30.6254995050       15.5278588755      -12.1454461031  MEMB      117             0.0000000000
     16555       145  DOPC      H3S            31.7931987915       14.8925203803      -10.9552372034  MEMB      117             0.0000000000
     16556       145  DOPC      C24            29.9400853078       13.7626798302      -11.0850187279  MEMB      117             0.0000000000
     16557       145  DOPC      H4R            29.2183319703       13.4452354802      -11.8689846546  MEMB      117             0.0000000000
     16558       145  DOPC      H4S            29.3843919799       14.4332367482      -10.3911647348  MEMB      117             0.0000000000
     16559       145  DOPC      C25            30.3867769179       12.5184925317      -10.2920756104  MEMB      117             0.0000000000
     16560       145  DOPC      H5R            30.7238222989       11.7341462526      -11.0086356318  MEMB      117             0.0000000000
     16561       145  DOPC      H5S            29.5052569350       12.1084106687       -9.7469819835  MEMB      117             0.0000000000
     16562       145  DOPC      C26            31.5102492763       12.7622079083       -9.2699789236  MEMB      117             0.0000000000
     16563       145  DOPC      H6R            32.4512992214       12.9700236740       -9.8289864477  MEMB      117             0.0000000000
     16564       145  DOPC      H6S            31.6768377875       11.8264015565       -8.6898968915  MEMB      117             0.0000000000
     16565       145  DOPC      C27            31.2736453932       13.9215956572       -8.2838588863  MEMB      117             0.0000000000
     16566       145  DOPC      H7R            31.3289537217       14.8842223465       -8.8378925204  MEMB      117             0.0000000000
     16567       145  DOPC      H7S            32.1190072968       13.9172418459       -7.5565858032  MEMB      117             0.0000000000
     16568       145  DOPC      C28            29.9420841758       13.8662140872       -7.5098186287  MEMB      117             0.0000000000
     16569       145  DOPC      H8R            29.8609467602       12.8794407795       -7.0058860718  MEMB      117             0.0000000000
     16570       145  DOPC      H8S            29.0952345430       13.9273599534       -8.2270642716  MEMB      117             0.0000000000
     16571       145  DOPC      C29            29.8729241521       15.0273702587       -6.5454850918  MEMB      117             0.0000000000
     16572       145  DOPC      H9R            29.9716252280       16.0119203786       -7.0295099655  MEMB      117             0.0000000000
     16573       145  DOPC      C210           29.6723003289       14.9822402666       -5.2135463664  MEMB      117             0.0000000000
     16574       145  DOPC      H10R           29.6343561948       15.9308059074       -4.6557562040  MEMB      117             0.0000000000
     16575       145  DOPC      C211           29.4638228202       13.7478131451       -4.3686474423  MEMB      117             0.0000000000
     16576       145  DOPC      H11R           30.0418950403       13.8048351884       -3.4200389805  MEMB      117             0.0000000000
     16577       145  DOPC      H11S           29.8021554488       12.8357594131       -4.9008304204  MEMB      117             0.0000000000
     16578       145  DOPC      C212           27.9652313243       13.5915717308       -4.0615204004  MEMB      117             0.0000000000
     16579       145  DOPC      H12R           27.4261973230       13.5783174813       -5.0403927441  MEMB      117             0.0000000000
     16580       145  DOPC      H12S           27.5893651425       14.4615633463       -3.4838194964  MEMB      117             0.0000000000
     16581       145  DOPC      C213           27.5720648556       12.2885958845       -3.3479668334  MEMB      117             0.0000000000
     16582       145  DOPC      H13R           28.1387045112       11.4343836263       -3.7675965052  MEMB      117             0.0000000000
     16583       145  DOPC      H13S           26.4902291242       12.1377631717       -3.5792355535  MEMB      117             0.0000000000
     16584       145  DOPC      C214           27.7185555639       12.2791595038       -1.8245659423  MEMB      117             0.0000000000
     16585       145  DOPC      H14R           27.5328702782       13.3137615502       -1.4558566498  MEMB      117             0.0000000000
     16586       145  DOPC      H14S           28.7537110571       11.9991018933       -1.5267102610  MEMB      117             0.0000000000
     16587       145  DOPC      C215           26.6956736646       11.3381727891       -1.1566597710  MEMB      117             0.0000000000
     16588       145  DOPC      H15R           27.0511475317       10.2840984973       -1.1852446864  MEMB      117             0.0000000000
     16589       145  DOPC      H15S           25.7472373959       11.4022568326       -1.7323677258  MEMB      117             0.0000000000
     16590       145  DOPC      C216           26.4322083284       11.7888370506        0.2799161924  MEMB      117             0.0000000000
     16591       145  DOPC      H16R           26.3132400956       12.8967946430        0.2232542092  MEMB      117             0.0000000000
     16592       145  DOPC      H16S           27.3380172860       11.5693795996        0.8843546020  MEMB      117             0.0000000000
     16593       145  DOPC      C217           25.1893649157       11.2747261739        1.0243008192  MEMB      117             0.0000000000
     16594       145  DOPC      H17R           24.5413218194       12.1502787255        1.2451204105  MEMB      117             0.0000000000
     16595       145  DOPC      H17S           25.5129326028       10.8841818988        2.0154530509  MEMB      117             0.0000000000
     16596       145  DOPC      C218           24.3096983426       10.2356038538        0.3416131299  MEMB      117             0.0000000000
     16597       145  DOPC      H18R           23.2688162129       10.3903410152        0.7029598089  MEMB      117             0.0000000000
     16598       145  DOPC      H18S           24.6352267225        9.2082617623        0.6123944873  MEMB      117             0.0000000000
     16599       145  DOPC      H18T           24.2888307849       10.3333586200       -0.7598690920  MEMB      117             0.0000000000
     16600       145  DOPC      C33            25.8802063670       10.6693214692      -11.6545506654  MEMB      117             0.0000000000
     16601       145  DOPC      H3X            25.9573103926        9.5678626653      -11.7670438643  MEMB      117             0.0000000000
     16602       145  DOPC      H3Y            25.1267997120       11.0328514363      -12.3924260773  MEMB      117             0.0000000000
     16603       145  DOPC      C34            25.3822712789       11.0239787895      -10.2656156888  MEMB      117             0.0000000000
     16604       145  DOPC      H4X            24.3267055553       10.7157723600      -10.1437231036  MEMB      117             0.0000000000
     16605       145  DOPC      H4Y            25.3806048641       12.1051913282      -10.1731208887  MEMB      117             0.0000000000
     16606       145  DOPC      C35            26.2779152069       10.5141473240       -9.1544624388  MEMB      117             0.0000000000
     16607       145  DOPC      H5X            27.2299820972       11.0833473988       -9.0857661602  MEMB      117             0.0000000000
     16608       145  DOPC      H5Y            26.5054559482        9.4711066361       -9.4231922059  MEMB      117             0.0000000000
     16609       145  DOPC      C36            25.5612404722       10.4453442211       -7.8196894635  MEMB      117             0.0000000000
     16610       145  DOPC      H6X            25.4671458966       11.4468096667       -7.3501210053  MEMB      117             0.0000000000
     16611       145  DOPC      H6Y            24.5369934762       10.0810237705       -8.0553432708  MEMB      117             0.0000000000
     16612       145  DOPC      C37            26.2552381531        9.4388457303       -6.8994410598  MEMB      117             0.0000000000
     16613       145  DOPC      H7X            25.5464047092        8.6337244794       -6.6086844223  MEMB      117             0.0000000000
     16614       145  DOPC      H7Y            27.0698955243        8.9398081949       -7.4765300872  MEMB      117             0.0000000000
     16615       145  DOPC      C38            26.8347657923       10.0852551689       -5.6430332151  MEMB      117             0.0000000000
     16616       145  DOPC      H8X            26.0005307310       10.3907269238       -4.9730984066  MEMB      117             0.0000000000
     16617       145  DOPC      H8Y            27.3854323993       11.0069138431       -5.9337140584  MEMB      117             0.0000000000
     16618       145  DOPC      C39            27.7220824370        9.0710996000       -4.9758548160  MEMB      117             0.0000000000
     16619       145  DOPC      H9X            27.1869657493        8.3551925938       -4.3382322174  MEMB      117             0.0000000000
     16620       145  DOPC      C310           29.0588303908        8.9831424834       -5.0676421644  MEMB      117             0.0000000000
     16621       145  DOPC      H10X           29.5622010203        8.1412315678       -4.5698489776  MEMB      117             0.0000000000
     16622       145  DOPC      C311           29.9736831429        9.8853369187       -5.8530386243  MEMB      117             0.0000000000
     16623       145  DOPC      H11X           29.4200811064       10.7338172145       -6.3116582434  MEMB      117             0.0000000000
     16624       145  DOPC      H11Y           30.4587243359        9.3326845587       -6.6852586636  MEMB      117             0.0000000000
     16625       145  DOPC      C312           31.0534383092       10.4823559743       -4.9306262076  MEMB      117             0.0000000000
     16626       145  DOPC      H12X           30.5664596600       10.9930903790       -4.0691300147  MEMB      117             0.0000000000
     16627       145  DOPC      H12Y           31.6074887739       11.2615049515       -5.5034787590  MEMB      117             0.0000000000
     16628       145  DOPC      C313           32.0664621897        9.4569139969       -4.3993568313  MEMB      117             0.0000000000
     16629       145  DOPC      H13X           31.5449618461        8.6854533868       -3.7945789053  MEMB      117             0.0000000000
     16630       145  DOPC      H13Y           32.5229203282        8.9392968905       -5.2725913677  MEMB      117             0.0000000000
     16631       145  DOPC      C314           33.1814696029       10.1026639972       -3.5593275143  MEMB      117             0.0000000000
     16632       145  DOPC      H14X           33.9680813165        9.3433377582       -3.3693447489  MEMB      117             0.0000000000
     16633       145  DOPC      H14Y           33.6441947905       10.9210252832       -4.1552080157  MEMB      117             0.0000000000
     16634       145  DOPC      C315           32.7308663005       10.6554878668       -2.1949835454  MEMB      117             0.0000000000
     16635       145  DOPC      H15X           31.8870106577       11.3663264924       -2.3289446519  MEMB      117             0.0000000000
     16636       145  DOPC      H15Y           33.5808896981       11.2287102691       -1.7598597584  MEMB      117             0.0000000000
     16637       145  DOPC      C316           32.3269074790        9.5497616889       -1.2067007284  MEMB      117             0.0000000000
     16638       145  DOPC      H16X           31.5405981594        8.9094422576       -1.6678567404  MEMB      117             0.0000000000
     16639       145  DOPC      H16Y           33.2110438679        8.9025498815       -1.0136281529  MEMB      117             0.0000000000
     16640       145  DOPC      C317           31.7704296051       10.0589075264        0.1316114376  MEMB      117             0.0000000000
     16641       145  DOPC      H17X           30.7513225928       10.4754673353       -0.0455229165  MEMB      117             0.0000000000
     16642       145  DOPC      H17Y           31.6604613841        9.1694328341        0.7931581203  MEMB      117             0.0000000000
     16643       145  DOPC      C318           32.6059411057       11.1137898064        0.8612893973  MEMB      117             0.0000000000
     16644       145  DOPC      H18X           32.1004818545       11.4064997588        1.8084990324  MEMB      117             0.0000000000
     16645       145  DOPC      H18Y           33.6139151194       10.7160035171        1.1057557735  MEMB      117             0.0000000000
     16646       145  DOPC      H18Z           32.7182375407       12.0271035183        0.2398960283  MEMB      117             0.0000000000
     16647       146  DOPC      N             -17.8448482112       27.7795071214      -18.7589915641  MEMB      118             0.0000000000
     16648       146  DOPC      C12           -17.0765120017       28.8633920991      -19.5153931085  MEMB      118             0.0000000000
     16649       146  DOPC      H12A          -17.4464196971       28.9070124079      -20.5485471464  MEMB      118             0.0000000000
     16650       146  DOPC      H12B          -16.0348513987       28.5644889887      -19.5890117154  MEMB      118             0.0000000000
     16651       146  DOPC      C13           -17.3717658876       26.4221372796      -19.1504242994  MEMB      118             0.0000000000
     16652       146  DOPC      H13A          -17.5190294771       26.2621421650      -20.2113734040  MEMB      118             0.0000000000
     16653       146  DOPC      H13B          -16.3078290217       26.3424779352      -18.9291777388  MEMB      118             0.0000000000
     16654       146  DOPC      H13C          -17.9067633996       25.6603132635      -18.5938627480  MEMB      118             0.0000000000
     16655       146  DOPC      C14           -19.2830730332       27.9503777109      -19.1198355769  MEMB      118             0.0000000000
     16656       146  DOPC      H14A          -19.9246975338       27.2553625529      -18.6267928294  MEMB      118             0.0000000000
     16657       146  DOPC      H14B          -19.5918475794       28.9670782875      -18.8557342316  MEMB      118             0.0000000000
     16658       146  DOPC      H14C          -19.4144021995       27.9148461187      -20.1983094640  MEMB      118             0.0000000000
     16659       146  DOPC      C15           -17.7117191639       27.9159228514      -17.2860689050  MEMB      118             0.0000000000
     16660       146  DOPC      H15A          -18.0207217882       28.9269565355      -17.0105468924  MEMB      118             0.0000000000
     16661       146  DOPC      H15B          -16.6869674363       27.7717263785      -16.9788131100  MEMB      118             0.0000000000
     16662       146  DOPC      H15C          -18.3471093248       27.2048203785      -16.7713390084  MEMB      118             0.0000000000
     16663       146  DOPC      C11           -17.1119829463       30.3115235888      -18.9361993114  MEMB      118             0.0000000000
     16664       146  DOPC      H11A          -16.4562939569       30.3167713477      -18.0370489066  MEMB      118             0.0000000000
     16665       146  DOPC      H11B          -16.6375155931       31.0058502431      -19.6691248657  MEMB      118             0.0000000000
     16666       146  DOPC      P             -19.3978197540       31.5719377587      -19.4450967944  MEMB      118             0.0000000000
     16667       146  DOPC      O13           -20.2119438327       30.5864028017      -20.1894835951  MEMB      118             0.0000000000
     16668       146  DOPC      O14           -18.7931926069       32.6836810091      -20.2157692276  MEMB      118             0.0000000000
     16669       146  DOPC      O12           -18.4042299154       30.7586372588      -18.5312087897  MEMB      118             0.0000000000
     16670       146  DOPC      O11           -20.3861867267       32.2335883033      -18.3897417486  MEMB      118             0.0000000000
     16671       146  DOPC      C1            -21.2495516459       31.4005105332      -17.6016209898  MEMB      118             0.0000000000
     16672       146  DOPC      HA            -21.2603890864       30.3342070662      -17.9348331392  MEMB      118             0.0000000000
     16673       146  DOPC      HB            -22.2745958129       31.7967404344      -17.7008733449  MEMB      118             0.0000000000
     16674       146  DOPC      C2            -20.9283688304       31.4149637941      -16.0839740777  MEMB      118             0.0000000000
     16675       146  DOPC      HS            -21.0701220071       32.4609355297      -15.7177116507  MEMB      118             0.0000000000
     16676       146  DOPC      O21           -19.6068731117       30.8838556434      -15.8923446067  MEMB      118             0.0000000000
     16677       146  DOPC      C21           -18.7466134972       31.7407270392      -15.3690022376  MEMB      118             0.0000000000
     16678       146  DOPC      O22           -18.9892931681       32.8827229765      -15.0229982846  MEMB      118             0.0000000000
     16679       146  DOPC      C22           -17.3932158349       31.0615535208      -15.1758579872  MEMB      118             0.0000000000
     16680       146  DOPC      H2R           -16.6581550703       31.6791148533      -15.7337955575  MEMB      118             0.0000000000
     16681       146  DOPC      H2S           -17.4075729381       30.0546322627      -15.6254061180  MEMB      118             0.0000000000
     16682       146  DOPC      C3            -21.9238344278       30.5080652770      -15.3027665592  MEMB      118             0.0000000000
     16683       146  DOPC      HX            -21.8843438047       29.5173036767      -15.8116050480  MEMB      118             0.0000000000
     16684       146  DOPC      HY            -22.9668172024       30.8862103138      -15.4063608974  MEMB      118             0.0000000000
     16685       146  DOPC      O31           -21.5398411568       30.3130798163      -13.9236793738  MEMB      118             0.0000000000
     16686       146  DOPC      C31           -21.8793062680       31.2890435791      -13.0820071379  MEMB      118             0.0000000000
     16687       146  DOPC      O32           -22.5375044504       32.2753508946      -13.3691230387  MEMB      118             0.0000000000
     16688       146  DOPC      C32           -21.3396747934       30.9268485267      -11.6825824703  MEMB      118             0.0000000000
     16689       146  DOPC      H2X           -20.9005986955       29.9085019030      -11.7231463820  MEMB      118             0.0000000000
     16690       146  DOPC      H2Y           -20.5325377596       31.6447765745      -11.4371039086  MEMB      118             0.0000000000
     16691       146  DOPC      C23           -16.9963860383       30.9809643524      -13.6839196666  MEMB      118             0.0000000000
     16692       146  DOPC      H3R           -17.5022556484       30.1157297857      -13.2034807208  MEMB      118             0.0000000000
     16693       146  DOPC      H3S           -17.3332612353       31.9036085886      -13.1525853746  MEMB      118             0.0000000000
     16694       146  DOPC      C24           -15.4769266493       30.8954532040      -13.5191147535  MEMB      118             0.0000000000
     16695       146  DOPC      H4R           -15.0454239023       31.7261434883      -14.1240510578  MEMB      118             0.0000000000
     16696       146  DOPC      H4S           -15.0983579522       29.9294660938      -13.9194951932  MEMB      118             0.0000000000
     16697       146  DOPC      C25           -14.9945306783       31.0991621083      -12.0817687949  MEMB      118             0.0000000000
     16698       146  DOPC      H5R           -15.4101409211       32.0670393094      -11.7214723302  MEMB      118             0.0000000000
     16699       146  DOPC      H5S           -13.8870819410       31.1949982039      -12.0501148993  MEMB      118             0.0000000000
     16700       146  DOPC      C26           -15.4038135015       29.9654838801      -11.1384665563  MEMB      118             0.0000000000
     16701       146  DOPC      H6R           -14.7132223740       29.1054243739      -11.2774672795  MEMB      118             0.0000000000
     16702       146  DOPC      H6S           -16.4168483262       29.6000133536      -11.3996628785  MEMB      118             0.0000000000
     16703       146  DOPC      C27           -15.3848318996       30.4332530844       -9.6785427226  MEMB      118             0.0000000000
     16704       146  DOPC      H7R           -14.4583616742       31.0287119373       -9.5082818558  MEMB      118             0.0000000000
     16705       146  DOPC      H7S           -15.3455947579       29.5564685513       -8.9932304885  MEMB      118             0.0000000000
     16706       146  DOPC      C28           -16.6001871090       31.3047197468       -9.3359742610  MEMB      118             0.0000000000
     16707       146  DOPC      H8R           -16.7333936100       32.1091000397      -10.0904698118  MEMB      118             0.0000000000
     16708       146  DOPC      H8S           -16.3701773664       31.8040002785       -8.3673675847  MEMB      118             0.0000000000
     16709       146  DOPC      C29           -17.8410093306       30.4542108617       -9.2533731598  MEMB      118             0.0000000000
     16710       146  DOPC      H9R           -17.9009794461       29.5942971018       -9.9379683673  MEMB      118             0.0000000000
     16711       146  DOPC      C210          -18.8387462299       30.6651876343       -8.3935195631  MEMB      118             0.0000000000
     16712       146  DOPC      H10R          -19.6572050644       29.9335416317       -8.3327311489  MEMB      118             0.0000000000
     16713       146  DOPC      C211          -18.8687929518       31.7829983917       -7.3895473142  MEMB      118             0.0000000000
     16714       146  DOPC      H11R          -19.8490745117       32.2899407233       -7.4190893481  MEMB      118             0.0000000000
     16715       146  DOPC      H11S          -18.1357333311       32.5858626955       -7.6235213983  MEMB      118             0.0000000000
     16716       146  DOPC      C212          -18.5537225717       31.2390703013       -5.9895696333  MEMB      118             0.0000000000
     16717       146  DOPC      H12R          -17.5387369818       30.7762517674       -6.0093298738  MEMB      118             0.0000000000
     16718       146  DOPC      H12S          -19.2805609465       30.4459744852       -5.7037472406  MEMB      118             0.0000000000
     16719       146  DOPC      C213          -18.5587933798       32.3504635863       -4.9348431367  MEMB      118             0.0000000000
     16720       146  DOPC      H13R          -19.6065667236       32.6791362221       -4.7529778977  MEMB      118             0.0000000000
     16721       146  DOPC      H13S          -18.0002610690       33.2224197218       -5.3465607937  MEMB      118             0.0000000000
     16722       146  DOPC      C214          -17.8974847243       31.9401629409       -3.6112697646  MEMB      118             0.0000000000
     16723       146  DOPC      H14R          -17.7731574171       32.8586924712       -2.9929172456  MEMB      118             0.0000000000
     16724       146  DOPC      H14S          -16.8831726708       31.5290955515       -3.8109511705  MEMB      118             0.0000000000
     16725       146  DOPC      C215          -18.7189329896       30.9225822992       -2.8074635915  MEMB      118             0.0000000000
     16726       146  DOPC      H15R          -18.7812535216       29.9575334684       -3.3556825896  MEMB      118             0.0000000000
     16727       146  DOPC      H15S          -19.7491044236       31.3384722892       -2.7276803652  MEMB      118             0.0000000000
     16728       146  DOPC      C216          -18.1341502616       30.6867107248       -1.4033150643  MEMB      118             0.0000000000
     16729       146  DOPC      H16R          -17.9942349665       31.6832198398       -0.9237925992  MEMB      118             0.0000000000
     16730       146  DOPC      H16S          -17.1276871305       30.2194707312       -1.4931533340  MEMB      118             0.0000000000
     16731       146  DOPC      C217          -19.0051651966       29.8312825982       -0.4657825181  MEMB      118             0.0000000000
     16732       146  DOPC      H17R          -18.6518725099       30.0061957071        0.5772963739  MEMB      118             0.0000000000
     16733       146  DOPC      H17S          -18.8700450164       28.7531932635       -0.6774199375  MEMB      118             0.0000000000
     16734       146  DOPC      C218          -20.4962025002       30.1260163820       -0.5441530920  MEMB      118             0.0000000000
     16735       146  DOPC      H18R          -20.9299231999       29.7379217703       -1.4909024476  MEMB      118             0.0000000000
     16736       146  DOPC      H18S          -20.6322816562       31.2260676736       -0.5185783719  MEMB      118             0.0000000000
     16737       146  DOPC      H18T          -21.0463470149       29.6707648549        0.3069204915  MEMB      118             0.0000000000
     16738       146  DOPC      C33           -22.4769537804       30.9930115337      -10.6354939037  MEMB      118             0.0000000000
     16739       146  DOPC      H3X           -23.1886652218       30.1542879989      -10.8118154938  MEMB      118             0.0000000000
     16740       146  DOPC      H3Y           -23.0331569920       31.9446654526      -10.8061105476  MEMB      118             0.0000000000
     16741       146  DOPC      C34           -22.1063436971       30.9938310095       -9.1399364100  MEMB      118             0.0000000000
     16742       146  DOPC      H4X           -21.3985463027       31.8204979125       -8.9224937385  MEMB      118             0.0000000000
     16743       146  DOPC      H4Y           -21.6433386443       30.0318080011       -8.8448240000  MEMB      118             0.0000000000
     16744       146  DOPC      C35           -23.3994254846       31.2173945598       -8.3414614690  MEMB      118             0.0000000000
     16745       146  DOPC      H5X           -24.1135944319       30.4324583949       -8.6703068465  MEMB      118             0.0000000000
     16746       146  DOPC      H5Y           -23.8210800489       32.1848071872       -8.6802697998  MEMB      118             0.0000000000
     16747       146  DOPC      C36           -23.3616579040       31.2576315767       -6.8062037053  MEMB      118             0.0000000000
     16748       146  DOPC      H6X           -24.4098118380       31.3684211907       -6.4386759142  MEMB      118             0.0000000000
     16749       146  DOPC      H6Y           -22.9614715416       30.3113255939       -6.3884984533  MEMB      118             0.0000000000
     16750       146  DOPC      C37           -22.5124747543       32.3737361406       -6.2104660279  MEMB      118             0.0000000000
     16751       146  DOPC      H7X           -22.7055240136       32.4191731290       -5.1134010691  MEMB      118             0.0000000000
     16752       146  DOPC      H7Y           -21.4626583112       32.0348122745       -6.3281013707  MEMB      118             0.0000000000
     16753       146  DOPC      C38           -22.7049987390       33.7581914013       -6.8471635373  MEMB      118             0.0000000000
     16754       146  DOPC      H8X           -23.7399924123       34.1261737611       -6.6655204731  MEMB      118             0.0000000000
     16755       146  DOPC      H8Y           -22.5521429808       33.7268161813       -7.9461472621  MEMB      118             0.0000000000
     16756       146  DOPC      C39           -21.6514411988       34.6261741892       -6.2291440447  MEMB      118             0.0000000000
     16757       146  DOPC      H9X           -20.6730995797       34.6028389184       -6.7337321273  MEMB      118             0.0000000000
     16758       146  DOPC      C310          -21.8103315245       35.3972891699       -5.1503489196  MEMB      118             0.0000000000
     16759       146  DOPC      H10X          -20.9336189501       35.9531935443       -4.7965975455  MEMB      118             0.0000000000
     16760       146  DOPC      C311          -23.0723485237       35.5624266790       -4.3396738435  MEMB      118             0.0000000000
     16761       146  DOPC      H11X          -23.8838557791       34.8714043784       -4.6510815588  MEMB      118             0.0000000000
     16762       146  DOPC      H11Y          -23.4349449527       36.5902669106       -4.5419777057  MEMB      118             0.0000000000
     16763       146  DOPC      C312          -22.9408196844       35.4560688432       -2.8080253696  MEMB      118             0.0000000000
     16764       146  DOPC      H12X          -23.8920001542       35.7533671978       -2.3252661933  MEMB      118             0.0000000000
     16765       146  DOPC      H12Y          -22.2050509319       36.1829788582       -2.4840909584  MEMB      118             0.0000000000
     16766       146  DOPC      C313          -22.5442604773       34.0877950583       -2.2762949926  MEMB      118             0.0000000000
     16767       146  DOPC      H13X          -22.8875638290       33.3750864879       -3.0575668250  MEMB      118             0.0000000000
     16768       146  DOPC      H13Y          -21.4407857441       33.9827546278       -2.1952203656  MEMB      118             0.0000000000
     16769       146  DOPC      C314          -23.2152691636       33.7247080064       -0.9408236603  MEMB      118             0.0000000000
     16770       146  DOPC      H14X          -22.6181270208       34.0833550602       -0.0727056817  MEMB      118             0.0000000000
     16771       146  DOPC      H14Y          -24.2120805221       34.2142311983       -0.8735192356  MEMB      118             0.0000000000
     16772       146  DOPC      C315          -23.4030099839       32.2078569022       -0.8919738076  MEMB      118             0.0000000000
     16773       146  DOPC      H15X          -22.5290054037       31.7523484559       -0.3959941941  MEMB      118             0.0000000000
     16774       146  DOPC      H15Y          -23.4377552657       31.8419329435       -1.9384985671  MEMB      118             0.0000000000
     16775       146  DOPC      C316          -24.6603968999       31.7130099301       -0.1858605232  MEMB      118             0.0000000000
     16776       146  DOPC      H16X          -24.4421302012       31.7417772314        0.8935771327  MEMB      118             0.0000000000
     16777       146  DOPC      H16Y          -25.4960766260       32.4285662834       -0.3259255824  MEMB      118             0.0000000000
     16778       146  DOPC      C317          -25.1253242244       30.3080281744       -0.6358569223  MEMB      118             0.0000000000
     16779       146  DOPC      H17X          -25.5135151326       29.7775663928        0.2573931695  MEMB      118             0.0000000000
     16780       146  DOPC      H17Y          -25.9933866330       30.4230075353       -1.3202221137  MEMB      118             0.0000000000
     16781       146  DOPC      C318          -24.1090133830       29.3917107608       -1.3342839298  MEMB      118             0.0000000000
     16782       146  DOPC      H18X          -24.6209212206       28.4572626939       -1.6463566569  MEMB      118             0.0000000000
     16783       146  DOPC      H18Y          -23.7081123992       29.8453924910       -2.2629061708  MEMB      118             0.0000000000
     16784       146  DOPC      H18Z          -23.2644570352       29.1269133506       -0.6642140855  MEMB      118             0.0000000000
     16785       147  DOPC      N             -22.8617364646       24.7485367622      -19.1674243753  MEMB      119             0.0000000000
     16786       147  DOPC      C12           -24.0021894072       23.9645158124      -18.5145379261  MEMB      119             0.0000000000
     16787       147  DOPC      H12A          -24.6680192111       24.6515221667      -17.9895280467  MEMB      119             0.0000000000
     16788       147  DOPC      H12B          -23.6256960517       23.3077619909      -17.7409843409  MEMB      119             0.0000000000
     16789       147  DOPC      C13           -22.0480368622       23.7918389132      -19.9961285250  MEMB      119             0.0000000000
     16790       147  DOPC      H13A          -21.6158115511       23.0281834323      -19.3610931739  MEMB      119             0.0000000000
     16791       147  DOPC      H13B          -22.7030550877       23.2766966508      -20.7046250593  MEMB      119             0.0000000000
     16792       147  DOPC      H13C          -21.2407474305       24.2718633400      -20.5343275231  MEMB      119             0.0000000000
     16793       147  DOPC      C14           -22.0176752011       25.4331924345      -18.1401351799  MEMB      119             0.0000000000
     16794       147  DOPC      H14A          -21.2502912989       26.0297199253      -18.6091879474  MEMB      119             0.0000000000
     16795       147  DOPC      H14B          -22.6001437069       26.1040009817      -17.5163192580  MEMB      119             0.0000000000
     16796       147  DOPC      H14C          -21.5031652176       24.7285192521      -17.4923423091  MEMB      119             0.0000000000
     16797       147  DOPC      C15           -23.4368264777       25.8198751329      -20.0364414800  MEMB      119             0.0000000000
     16798       147  DOPC      H15A          -23.8750355138       26.6151242816      -19.4396255962  MEMB      119             0.0000000000
     16799       147  DOPC      H15B          -24.2534860834       25.3847868655      -20.6013747486  MEMB      119             0.0000000000
     16800       147  DOPC      H15C          -22.7077965087       26.2458760719      -20.7127400368  MEMB      119             0.0000000000
     16801       147  DOPC      C11           -24.9217391649       23.1204271507      -19.4577358800  MEMB      119             0.0000000000
     16802       147  DOPC      H11A          -24.2841696438       22.3707726767      -19.9606925075  MEMB      119             0.0000000000
     16803       147  DOPC      H11B          -25.6243574271       22.5011364334      -18.8487086827  MEMB      119             0.0000000000
     16804       147  DOPC      P             -26.8915464741       24.7098712260      -19.9557529078  MEMB      119             0.0000000000
     16805       147  DOPC      O13           -28.0580869524       23.8450245664      -19.7805668932  MEMB      119             0.0000000000
     16806       147  DOPC      O14           -27.0471984110       25.8495521325      -20.8802066390  MEMB      119             0.0000000000
     16807       147  DOPC      O12           -25.6241799089       23.9033255691      -20.4470867435  MEMB      119             0.0000000000
     16808       147  DOPC      O11           -26.3421446354       25.1959104768      -18.5626852925  MEMB      119             0.0000000000
     16809       147  DOPC      C1            -26.8805686510       25.7287456415      -17.3677130511  MEMB      119             0.0000000000
     16810       147  DOPC      HA            -27.8322785445       26.2526639624      -17.5536061223  MEMB      119             0.0000000000
     16811       147  DOPC      HB            -26.1763314928       26.5249802141      -17.0366059677  MEMB      119             0.0000000000
     16812       147  DOPC      C2            -26.9984407005       24.7701960594      -16.1096887199  MEMB      119             0.0000000000
     16813       147  DOPC      HS            -27.7503415603       25.2400978751      -15.4331160594  MEMB      119             0.0000000000
     16814       147  DOPC      O21           -25.6986360148       24.7013290148      -15.4710447584  MEMB      119             0.0000000000
     16815       147  DOPC      C21           -25.6661300685       24.8652674881      -14.1288134797  MEMB      119             0.0000000000
     16816       147  DOPC      O22           -26.6232666561       25.0779514650      -13.4149005055  MEMB      119             0.0000000000
     16817       147  DOPC      C22           -24.1869119599       24.8426997069      -13.7153720536  MEMB      119             0.0000000000
     16818       147  DOPC      H2R           -23.5870474674       25.3740149197      -14.4787347117  MEMB      119             0.0000000000
     16819       147  DOPC      H2S           -23.8706473983       23.7907034556      -13.7409961117  MEMB      119             0.0000000000
     16820       147  DOPC      C3            -27.5177324361       23.3137802387      -16.3988042725  MEMB      119             0.0000000000
     16821       147  DOPC      HX            -27.1291523945       22.9676443072      -17.3797214685  MEMB      119             0.0000000000
     16822       147  DOPC      HY            -28.6247165098       23.3737316849      -16.5084418202  MEMB      119             0.0000000000
     16823       147  DOPC      O31           -27.2019969088       22.4107246725      -15.3023859822  MEMB      119             0.0000000000
     16824       147  DOPC      C31           -26.4100315968       21.3686867295      -15.5587927117  MEMB      119             0.0000000000
     16825       147  DOPC      O32           -26.0913953698       20.9785162966      -16.6696455771  MEMB      119             0.0000000000
     16826       147  DOPC      C32           -25.8867541405       20.7232106123      -14.2740157532  MEMB      119             0.0000000000
     16827       147  DOPC      H2X           -26.4052009657       21.1656891881      -13.4010254140  MEMB      119             0.0000000000
     16828       147  DOPC      H2Y           -26.1494897949       19.6526082962      -14.3341808924  MEMB      119             0.0000000000
     16829       147  DOPC      C23           -23.8421721733       25.3527250895      -12.2997557819  MEMB      119             0.0000000000
     16830       147  DOPC      H3R           -22.9601002871       24.7590603357      -11.9542360356  MEMB      119             0.0000000000
     16831       147  DOPC      H3S           -24.6535498114       25.1576469823      -11.5720779290  MEMB      119             0.0000000000
     16832       147  DOPC      C24           -23.4354213357       26.8300329250      -12.2562637453  MEMB      119             0.0000000000
     16833       147  DOPC      H4R           -24.3452731955       27.4706366828      -12.2219529373  MEMB      119             0.0000000000
     16834       147  DOPC      H4S           -22.8669446129       27.0841114630      -13.1783556932  MEMB      119             0.0000000000
     16835       147  DOPC      C25           -22.5320677620       27.1375200081      -11.0541422295  MEMB      119             0.0000000000
     16836       147  DOPC      H5R           -22.1086565898       28.1586500831      -11.1538995819  MEMB      119             0.0000000000
     16837       147  DOPC      H5S           -21.6799116392       26.4217240074      -11.0443050612  MEMB      119             0.0000000000
     16838       147  DOPC      C26           -23.2742533838       27.0636586575       -9.7169247648  MEMB      119             0.0000000000
     16839       147  DOPC      H6R           -23.8892216487       26.1488823464       -9.6867347217  MEMB      119             0.0000000000
     16840       147  DOPC      H6S           -23.9863848837       27.9132385496       -9.6463844041  MEMB      119             0.0000000000
     16841       147  DOPC      C27           -22.3101733315       27.0360430202       -8.5246789183  MEMB      119             0.0000000000
     16842       147  DOPC      H7R           -21.6346084050       27.9159478255       -8.5762469900  MEMB      119             0.0000000000
     16843       147  DOPC      H7S           -21.6728047389       26.1270996125       -8.6148186530  MEMB      119             0.0000000000
     16844       147  DOPC      C28           -22.9899685790       26.9815068661       -7.1477479180  MEMB      119             0.0000000000
     16845       147  DOPC      H8R           -22.1935677485       27.0870508916       -6.3840365428  MEMB      119             0.0000000000
     16846       147  DOPC      H8S           -23.4598088345       25.9861892686       -7.0131085153  MEMB      119             0.0000000000
     16847       147  DOPC      C29           -23.9898841185       28.0648679406       -6.9086440513  MEMB      119             0.0000000000
     16848       147  DOPC      H9R           -23.9937563262       28.8580459208       -7.6540506481  MEMB      119             0.0000000000
     16849       147  DOPC      C210          -24.8946912066       28.0904330932       -5.9271758221  MEMB      119             0.0000000000
     16850       147  DOPC      H10R          -25.5972276160       28.9363440617       -5.8474039400  MEMB      119             0.0000000000
     16851       147  DOPC      C211          -25.0413908126       27.0020837917       -4.9062437863  MEMB      119             0.0000000000
     16852       147  DOPC      H11R          -25.2188570132       27.4077153583       -3.8878102148  MEMB      119             0.0000000000
     16853       147  DOPC      H11S          -24.1390828945       26.3482896907       -4.8494369460  MEMB      119             0.0000000000
     16854       147  DOPC      C212          -26.2056849851       26.1195636477       -5.3605069442  MEMB      119             0.0000000000
     16855       147  DOPC      H12R          -26.2653679591       25.2681767925       -4.6485921474  MEMB      119             0.0000000000
     16856       147  DOPC      H12S          -26.0152946357       25.7143993573       -6.3739052409  MEMB      119             0.0000000000
     16857       147  DOPC      C213          -27.5608314564       26.8245154898       -5.4016340505  MEMB      119             0.0000000000
     16858       147  DOPC      H13R          -27.5257448199       27.7650336613       -5.9929273486  MEMB      119             0.0000000000
     16859       147  DOPC      H13S          -27.7426915496       27.0771360595       -4.3497530713  MEMB      119             0.0000000000
     16860       147  DOPC      C214          -28.7011234640       25.9440801610       -5.9363226108  MEMB      119             0.0000000000
     16861       147  DOPC      H14R          -28.4181723318       25.5621583440       -6.9399685150  MEMB      119             0.0000000000
     16862       147  DOPC      H14S          -29.5950203527       26.5779429301       -6.0775362439  MEMB      119             0.0000000000
     16863       147  DOPC      C215          -29.0189766767       24.7815718838       -4.9850142173  MEMB      119             0.0000000000
     16864       147  DOPC      H15R          -29.4356275301       25.1628137209       -4.0317506557  MEMB      119             0.0000000000
     16865       147  DOPC      H15S          -28.0556375352       24.2949746639       -4.7367631146  MEMB      119             0.0000000000
     16866       147  DOPC      C216          -29.9453306474       23.6874056108       -5.5249352371  MEMB      119             0.0000000000
     16867       147  DOPC      H16R          -29.4915099626       23.2372927506       -6.4341147717  MEMB      119             0.0000000000
     16868       147  DOPC      H16S          -30.9247357946       24.1117208959       -5.8184341851  MEMB      119             0.0000000000
     16869       147  DOPC      C217          -30.2075023636       22.5982359215       -4.4723871973  MEMB      119             0.0000000000
     16870       147  DOPC      H17R          -30.7908668942       21.7725563203       -4.9363348401  MEMB      119             0.0000000000
     16871       147  DOPC      H17S          -30.8430156247       23.0326593696       -3.6831477861  MEMB      119             0.0000000000
     16872       147  DOPC      C218          -28.9762870594       22.0507436328       -3.7504845978  MEMB      119             0.0000000000
     16873       147  DOPC      H18R          -28.4364956714       22.8570764062       -3.2063295842  MEMB      119             0.0000000000
     16874       147  DOPC      H18S          -28.2866499012       21.5965185845       -4.4836991350  MEMB      119             0.0000000000
     16875       147  DOPC      H18T          -29.2637717083       21.2795375446       -3.0057632212  MEMB      119             0.0000000000
     16876       147  DOPC      C33           -24.3404845681       20.8784894575      -14.1755808950  MEMB      119             0.0000000000
     16877       147  DOPC      H3X           -24.1490378203       21.9601426691      -14.1033550415  MEMB      119             0.0000000000
     16878       147  DOPC      H3Y           -23.8418711326       20.5300311493      -15.1073457105  MEMB      119             0.0000000000
     16879       147  DOPC      C34           -23.6211179521       20.2196261031      -12.9749759490  MEMB      119             0.0000000000
     16880       147  DOPC      H4X           -22.6503485400       20.7502685488      -12.8335305273  MEMB      119             0.0000000000
     16881       147  DOPC      H4Y           -23.3850124666       19.1614477806      -13.2168319117  MEMB      119             0.0000000000
     16882       147  DOPC      C35           -24.3877762564       20.2675045688      -11.6473975387  MEMB      119             0.0000000000
     16883       147  DOPC      H5X           -23.8612812717       19.6838257882      -10.8580496037  MEMB      119             0.0000000000
     16884       147  DOPC      H5Y           -25.3845597514       19.8028981493      -11.7910507452  MEMB      119             0.0000000000
     16885       147  DOPC      C36           -24.6063461496       21.6973943145      -11.1596133946  MEMB      119             0.0000000000
     16886       147  DOPC      H6X           -23.6764631664       22.0952081322      -10.6995619446  MEMB      119             0.0000000000
     16887       147  DOPC      H6Y           -24.8426972429       22.3498673413      -12.0297327533  MEMB      119             0.0000000000
     16888       147  DOPC      C37           -25.7969986428       21.8272136227      -10.2107741471  MEMB      119             0.0000000000
     16889       147  DOPC      H7X           -26.6988048241       21.3853643635      -10.6902473158  MEMB      119             0.0000000000
     16890       147  DOPC      H7Y           -25.6061575453       21.2516810512       -9.2793142780  MEMB      119             0.0000000000
     16891       147  DOPC      C38           -26.0792397237       23.3048600819       -9.9235064369  MEMB      119             0.0000000000
     16892       147  DOPC      H8X           -27.1101273673       23.4255518319       -9.5283704352  MEMB      119             0.0000000000
     16893       147  DOPC      H8Y           -26.0693370669       23.8757702109      -10.8749616812  MEMB      119             0.0000000000
     16894       147  DOPC      C39           -25.0345597419       23.8102673812       -8.9627095285  MEMB      119             0.0000000000
     16895       147  DOPC      H9X           -24.1409992209       24.2656689464       -9.4028956227  MEMB      119             0.0000000000
     16896       147  DOPC      C310          -25.1087315436       23.6668594037       -7.6360229100  MEMB      119             0.0000000000
     16897       147  DOPC      H10X          -24.3054770282       24.0414914902       -6.9826716225  MEMB      119             0.0000000000
     16898       147  DOPC      C311          -26.2478519659       22.9868152392       -6.9436640024  MEMB      119             0.0000000000
     16899       147  DOPC      H11X          -27.0547971268       22.6721887602       -7.6467113659  MEMB      119             0.0000000000
     16900       147  DOPC      H11Y          -26.7484709705       23.6708312798       -6.2367214745  MEMB      119             0.0000000000
     16901       147  DOPC      C312          -25.8270797548       21.7018461537       -6.2388073856  MEMB      119             0.0000000000
     16902       147  DOPC      H12X          -25.5526211911       20.9288079870       -6.9884758707  MEMB      119             0.0000000000
     16903       147  DOPC      H12Y          -26.7861581702       21.4066152215       -5.7678517288  MEMB      119             0.0000000000
     16904       147  DOPC      C313          -24.7828741254       21.7390887481       -5.1072541058  MEMB      119             0.0000000000
     16905       147  DOPC      H13X          -24.8033536173       20.7253125101       -4.6440136740  MEMB      119             0.0000000000
     16906       147  DOPC      H13Y          -23.7535776652       21.8990647263       -5.4966721877  MEMB      119             0.0000000000
     16907       147  DOPC      C314          -25.1235788105       22.7557001771       -4.0160762606  MEMB      119             0.0000000000
     16908       147  DOPC      H14X          -24.7342675185       23.7469780114       -4.3342620103  MEMB      119             0.0000000000
     16909       147  DOPC      H14Y          -26.2306556928       22.8276865001       -3.9549315253  MEMB      119             0.0000000000
     16910       147  DOPC      C315          -24.6074151745       22.3999138841       -2.6111280442  MEMB      119             0.0000000000
     16911       147  DOPC      H15X          -24.1065595144       21.4043414358       -2.6446540992  MEMB      119             0.0000000000
     16912       147  DOPC      H15Y          -25.4688970313       22.3099693017       -1.9172374716  MEMB      119             0.0000000000
     16913       147  DOPC      C316          -23.6009844441       23.4293796852       -2.0870214616  MEMB      119             0.0000000000
     16914       147  DOPC      H16X          -23.0109696277       23.0481570021       -1.2244953619  MEMB      119             0.0000000000
     16915       147  DOPC      H16Y          -22.9054630009       23.5897566380       -2.9332633250  MEMB      119             0.0000000000
     16916       147  DOPC      C317          -24.1318646741       24.8237612852       -1.7673224556  MEMB      119             0.0000000000
     16917       147  DOPC      H17X          -25.0011835121       25.0481091600       -2.4248868986  MEMB      119             0.0000000000
     16918       147  DOPC      H17Y          -24.4860617230       24.8741994122       -0.7125689788  MEMB      119             0.0000000000
     16919       147  DOPC      C318          -23.0193575534       25.8466432083       -2.0180799285  MEMB      119             0.0000000000
     16920       147  DOPC      H18X          -22.2514430958       25.7920440180       -1.2183539831  MEMB      119             0.0000000000
     16921       147  DOPC      H18Y          -22.4952973232       25.6485284941       -2.9766389624  MEMB      119             0.0000000000
     16922       147  DOPC      H18Z          -23.4274890855       26.8712229779       -2.0631391685  MEMB      119             0.0000000000
     16923       148  DOPC      N             -17.0458842379      -32.2675105708      -19.6092040991  MEMB      120             0.0000000000
     16924       148  DOPC      C12           -18.5310119814      -32.1183717188      -19.9064789941  MEMB      120             0.0000000000
     16925       148  DOPC      H12A          -19.1229753338      -32.4855906487      -19.0640482203  MEMB      120             0.0000000000
     16926       148  DOPC      H12B          -18.8060639815      -32.7382486530      -20.7391329345  MEMB      120             0.0000000000
     16927       148  DOPC      C13           -16.2812787196      -31.9339110743      -20.8513858710  MEMB      120             0.0000000000
     16928       148  DOPC      H13A          -16.6729782014      -31.0197354932      -21.3000526781  MEMB      120             0.0000000000
     16929       148  DOPC      H13B          -15.2317205718      -31.7720889600      -20.6615472859  MEMB      120             0.0000000000
     16930       148  DOPC      H13C          -16.4017298283      -32.7254046784      -21.5904131315  MEMB      120             0.0000000000
     16931       148  DOPC      C14           -16.7589144938      -33.6609747479      -19.1321939139  MEMB      120             0.0000000000
     16932       148  DOPC      H14A          -16.8646490676      -34.3819040514      -19.9420926272  MEMB      120             0.0000000000
     16933       148  DOPC      H14B          -15.7601464622      -33.7605677245      -18.7228811011  MEMB      120             0.0000000000
     16934       148  DOPC      H14C          -17.4582530521      -33.9474190330      -18.3473663409  MEMB      120             0.0000000000
     16935       148  DOPC      C15           -16.7241911910      -31.2874062783      -18.5356047754  MEMB      120             0.0000000000
     16936       148  DOPC      H15A          -17.3372522265      -31.5037978317      -17.6656874895  MEMB      120             0.0000000000
     16937       148  DOPC      H15B          -17.0703607473      -30.2966975505      -18.8538844553  MEMB      120             0.0000000000
     16938       148  DOPC      H15C          -15.6824590570      -31.2437440943      -18.2851762949  MEMB      120             0.0000000000
     16939       148  DOPC      C11           -19.0141701481      -30.6732241307      -20.1730479112  MEMB      120             0.0000000000
     16940       148  DOPC      H11A          -18.3295348731      -30.1447678356      -20.8538752912  MEMB      120             0.0000000000
     16941       148  DOPC      H11B          -19.9977203553      -30.6957675365      -20.7028092227  MEMB      120             0.0000000000
     16942       148  DOPC      P             -20.3487612525      -30.2096913294      -18.0525809959  MEMB      120             0.0000000000
     16943       148  DOPC      O13           -21.0087102668      -31.4335418541      -18.5819431998  MEMB      120             0.0000000000
     16944       148  DOPC      O14           -21.1309804005      -28.9660398564      -18.0439426448  MEMB      120             0.0000000000
     16945       148  DOPC      O12           -19.0803010127      -29.9389867570      -18.9493610641  MEMB      120             0.0000000000
     16946       148  DOPC      O11           -19.7219840009      -30.5217147323      -16.6290564973  MEMB      120             0.0000000000
     16947       148  DOPC      C1            -18.6151873408      -29.8468593427      -16.0439151507  MEMB      120             0.0000000000
     16948       148  DOPC      HA            -18.9884141964      -28.9871235608      -15.4438771341  MEMB      120             0.0000000000
     16949       148  DOPC      HB            -17.9093426585      -29.4496038986      -16.8051549159  MEMB      120             0.0000000000
     16950       148  DOPC      C2            -17.8289362620      -30.7822807494      -15.0779690840  MEMB      120             0.0000000000
     16951       148  DOPC      HS            -17.5012502459      -31.6771829886      -15.6521682523  MEMB      120             0.0000000000
     16952       148  DOPC      O21           -18.7350874280      -31.1794022494      -14.0352407017  MEMB      120             0.0000000000
     16953       148  DOPC      C21           -18.3414133287      -32.0505373059      -13.1215597960  MEMB      120             0.0000000000
     16954       148  DOPC      O22           -17.2443670260      -32.5739840566      -13.0574142484  MEMB      120             0.0000000000
     16955       148  DOPC      C22           -19.5305691509      -32.2316850946      -12.1690212497  MEMB      120             0.0000000000
     16956       148  DOPC      H2R           -20.2793072024      -32.8594489036      -12.6963984818  MEMB      120             0.0000000000
     16957       148  DOPC      H2S           -19.9720510168      -31.2310409964      -11.9749451718  MEMB      120             0.0000000000
     16958       148  DOPC      C3            -16.5716743045      -30.0496604921      -14.5234862612  MEMB      120             0.0000000000
     16959       148  DOPC      HX            -16.0156265866      -29.5960424051      -15.3748537251  MEMB      120             0.0000000000
     16960       148  DOPC      HY            -15.8925014074      -30.7929706551      -14.0451112200  MEMB      120             0.0000000000
     16961       148  DOPC      O31           -17.0213856343      -29.0051475781      -13.6436855501  MEMB      120             0.0000000000
     16962       148  DOPC      C31           -16.5780649652      -29.0607318046      -12.3924844449  MEMB      120             0.0000000000
     16963       148  DOPC      O32           -15.5232018456      -29.5441779203      -12.0351877059  MEMB      120             0.0000000000
     16964       148  DOPC      C32           -17.6391642663      -28.4890797329      -11.4568757191  MEMB      120             0.0000000000
     16965       148  DOPC      H2X           -18.4345733766      -28.0331668862      -12.0807277530  MEMB      120             0.0000000000
     16966       148  DOPC      H2Y           -18.1074783796      -29.3206722503      -10.8938965112  MEMB      120             0.0000000000
     16967       148  DOPC      C23           -19.1336524494      -32.8961322927      -10.8430728157  MEMB      120             0.0000000000
     16968       148  DOPC      H3R           -18.5941680450      -33.8456630559      -11.0686411269  MEMB      120             0.0000000000
     16969       148  DOPC      H3S           -20.0415591498      -33.1565674277      -10.2538222735  MEMB      120             0.0000000000
     16970       148  DOPC      C24           -18.2434626235      -31.9698055452      -10.0135011249  MEMB      120             0.0000000000
     16971       148  DOPC      H4R           -18.8457625739      -31.2345628669       -9.4371426787  MEMB      120             0.0000000000
     16972       148  DOPC      H4S           -17.5906210695      -31.3940714312      -10.7095185186  MEMB      120             0.0000000000
     16973       148  DOPC      C25           -17.2811952927      -32.7435357566       -9.1196840819  MEMB      120             0.0000000000
     16974       148  DOPC      H5R           -16.8605826064      -33.5866189414       -9.7188951403  MEMB      120             0.0000000000
     16975       148  DOPC      H5S           -17.8112705716      -33.1759688484       -8.2452407124  MEMB      120             0.0000000000
     16976       148  DOPC      C26           -16.1016240033      -31.8719958426       -8.6790100975  MEMB      120             0.0000000000
     16977       148  DOPC      H6R           -15.6184947172      -31.4064915194       -9.5712046755  MEMB      120             0.0000000000
     16978       148  DOPC      H6S           -15.3563115191      -32.5569411799       -8.2251683342  MEMB      120             0.0000000000
     16979       148  DOPC      C27           -16.4899366311      -30.7827843131       -7.6699158431  MEMB      120             0.0000000000
     16980       148  DOPC      H7R           -17.2836012506      -31.1619529949       -6.9916772443  MEMB      120             0.0000000000
     16981       148  DOPC      H7S           -16.9250759394      -29.9206504672       -8.2306647200  MEMB      120             0.0000000000
     16982       148  DOPC      C28           -15.2904771130      -30.2959813003       -6.8232885972  MEMB      120             0.0000000000
     16983       148  DOPC      H8R           -15.6154733516      -29.4281046381       -6.2369752790  MEMB      120             0.0000000000
     16984       148  DOPC      H8S           -14.5789948084      -29.8679640300       -7.5679835388  MEMB      120             0.0000000000
     16985       148  DOPC      C29           -14.5670938156      -31.3357886719       -5.9720557677  MEMB      120             0.0000000000
     16986       148  DOPC      H9R           -14.1195315182      -32.1077677557       -6.6132462663  MEMB      120             0.0000000000
     16987       148  DOPC      C210          -14.4070638039      -31.5451576432       -4.6367157803  MEMB      120             0.0000000000
     16988       148  DOPC      H10R          -13.7246808930      -32.3579124855       -4.3462388213  MEMB      120             0.0000000000
     16989       148  DOPC      C211          -14.9261735798      -30.7839913658       -3.4397188196  MEMB      120             0.0000000000
     16990       148  DOPC      H11R          -15.8452275867      -31.3457874819       -3.1920831494  MEMB      120             0.0000000000
     16991       148  DOPC      H11S          -15.1755202610      -29.7443812881       -3.7358569959  MEMB      120             0.0000000000
     16992       148  DOPC      C212          -14.2017190194      -30.6725511072       -2.0552751872  MEMB      120             0.0000000000
     16993       148  DOPC      H12R          -13.4750793573      -29.8426488741       -2.1367406612  MEMB      120             0.0000000000
     16994       148  DOPC      H12S          -13.6369227487      -31.6115007105       -1.8753836930  MEMB      120             0.0000000000
     16995       148  DOPC      C213          -15.0693026035      -30.3563275774       -0.7876288333  MEMB      120             0.0000000000
     16996       148  DOPC      H13R          -14.6511790237      -30.8494982288        0.1123675828  MEMB      120             0.0000000000
     16997       148  DOPC      H13S          -16.0675570365      -30.8239671290       -0.8572732623  MEMB      120             0.0000000000
     16998       148  DOPC      C214          -15.1505055274      -28.8431891438       -0.4435931018  MEMB      120             0.0000000000
     16999       148  DOPC      H14R          -14.8458506848      -28.2969038096       -1.3574158627  MEMB      120             0.0000000000
     17000       148  DOPC      H14S          -14.4541140719      -28.5163663999        0.3450993474  MEMB      120             0.0000000000
     17001       148  DOPC      C215          -16.5294830524      -28.3764135742        0.0129072800  MEMB      120             0.0000000000
     17002       148  DOPC      H15R          -16.9262896992      -28.9045690036        0.9028676263  MEMB      120             0.0000000000
     17003       148  DOPC      H15S          -17.1317054673      -28.7146564579       -0.8086282846  MEMB      120             0.0000000000
     17004       148  DOPC      C216          -16.7898392497      -26.8666643037       -0.0568402105  MEMB      120             0.0000000000
     17005       148  DOPC      H16R          -17.7866429623      -26.7162472481       -0.5319675010  MEMB      120             0.0000000000
     17006       148  DOPC      H16S          -16.0587593765      -26.4061757285       -0.7568716908  MEMB      120             0.0000000000
     17007       148  DOPC      C217          -16.8266547667      -26.1004878017        1.2674076137  MEMB      120             0.0000000000
     17008       148  DOPC      H17R          -17.8361636685      -25.6646752395        1.4157207378  MEMB      120             0.0000000000
     17009       148  DOPC      H17S          -16.1232437119      -25.2630201397        1.1498464595  MEMB      120             0.0000000000
     17010       148  DOPC      C218          -16.4017422658      -26.8473355201        2.5142241979  MEMB      120             0.0000000000
     17011       148  DOPC      H18R          -15.9228401121      -26.1670209060        3.2507302861  MEMB      120             0.0000000000
     17012       148  DOPC      H18S          -15.6562355307      -27.6213805868        2.2432529600  MEMB      120             0.0000000000
     17013       148  DOPC      H18T          -17.2596350367      -27.3313091874        3.0154720856  MEMB      120             0.0000000000
     17014       148  DOPC      C33           -17.0649657939      -27.4519096242      -10.4734100864  MEMB      120             0.0000000000
     17015       148  DOPC      H3X           -16.2026904544      -26.9152054686      -10.9297917182  MEMB      120             0.0000000000
     17016       148  DOPC      H3Y           -16.6849514322      -27.9706682655       -9.5621751851  MEMB      120             0.0000000000
     17017       148  DOPC      C34           -18.1170370763      -26.4030798210      -10.0984204202  MEMB      120             0.0000000000
     17018       148  DOPC      H4X           -19.0357768455      -26.5489834093      -10.7125825677  MEMB      120             0.0000000000
     17019       148  DOPC      H4Y           -17.7221287782      -25.3864910752      -10.3233924929  MEMB      120             0.0000000000
     17020       148  DOPC      C35           -18.5095716140      -26.4918848853       -8.6302226271  MEMB      120             0.0000000000
     17021       148  DOPC      H5X           -17.5868971920      -26.3964533501       -8.0134320990  MEMB      120             0.0000000000
     17022       148  DOPC      H5Y           -18.9539904980      -27.4949037746       -8.4342152663  MEMB      120             0.0000000000
     17023       148  DOPC      C36           -19.4906501693      -25.4137105706       -8.1655287030  MEMB      120             0.0000000000
     17024       148  DOPC      H6X           -19.1231225803      -24.4184695446       -8.5123963075  MEMB      120             0.0000000000
     17025       148  DOPC      H6Y           -20.4920660784      -25.5495803897       -8.6165034002  MEMB      120             0.0000000000
     17026       148  DOPC      C37           -19.5864012576      -25.3853455894       -6.6344121458  MEMB      120             0.0000000000
     17027       148  DOPC      H7X           -18.6683765987      -24.8486510678       -6.3192731057  MEMB      120             0.0000000000
     17028       148  DOPC      H7Y           -20.4440716941      -24.7719125637       -6.2902602235  MEMB      120             0.0000000000
     17029       148  DOPC      C38           -19.5004897693      -26.7286514555       -5.8810201908  MEMB      120             0.0000000000
     17030       148  DOPC      H8X           -19.0873457855      -26.4442242674       -4.8854550974  MEMB      120             0.0000000000
     17031       148  DOPC      H8Y           -18.7339590302      -27.3990034466       -6.3174218747  MEMB      120             0.0000000000
     17032       148  DOPC      C39           -20.7771352390      -27.4598921225       -5.5855390043  MEMB      120             0.0000000000
     17033       148  DOPC      H9X           -21.5747130610      -26.7949450817       -5.2259510789  MEMB      120             0.0000000000
     17034       148  DOPC      C310          -21.0769592024      -28.7665030115       -5.7369186256  MEMB      120             0.0000000000
     17035       148  DOPC      H10X          -22.0383602988      -29.0794848296       -5.3356826104  MEMB      120             0.0000000000
     17036       148  DOPC      C311          -20.3036301452      -29.9629442484       -6.2423878303  MEMB      120             0.0000000000
     17037       148  DOPC      H11X          -19.3493183352      -29.6442961528       -6.7173977908  MEMB      120             0.0000000000
     17038       148  DOPC      H11Y          -20.8857816765      -30.4967038841       -7.0221540404  MEMB      120             0.0000000000
     17039       148  DOPC      C312          -19.9819431209      -31.0207453418       -5.1659499847  MEMB      120             0.0000000000
     17040       148  DOPC      H12X          -19.3097607371      -30.4714584660       -4.5190599712  MEMB      120             0.0000000000
     17041       148  DOPC      H12Y          -19.4083287278      -31.8724794447       -5.5882129320  MEMB      120             0.0000000000
     17042       148  DOPC      C313          -21.0750251813      -31.5018572806       -4.1969344881  MEMB      120             0.0000000000
     17043       148  DOPC      H13X          -21.6317754464      -30.6150789685       -3.8192276549  MEMB      120             0.0000000000
     17044       148  DOPC      H13Y          -21.8153531221      -32.1259970493       -4.7299954537  MEMB      120             0.0000000000
     17045       148  DOPC      C314          -20.4737347467      -32.2203194918       -2.9550935077  MEMB      120             0.0000000000
     17046       148  DOPC      H14X          -20.4103254489      -33.3117207575       -3.1152802563  MEMB      120             0.0000000000
     17047       148  DOPC      H14Y          -19.4256970133      -31.9097904120       -2.8021651836  MEMB      120             0.0000000000
     17048       148  DOPC      C315          -21.2512490678      -31.8773641828       -1.6671217875  MEMB      120             0.0000000000
     17049       148  DOPC      H15X          -22.3246728849      -31.8290672436       -1.9534658670  MEMB      120             0.0000000000
     17050       148  DOPC      H15Y          -20.9666290164      -30.8693656142       -1.3256941384  MEMB      120             0.0000000000
     17051       148  DOPC      C316          -21.1349858565      -32.8380499789       -0.4685120488  MEMB      120             0.0000000000
     17052       148  DOPC      H16X          -22.0035683275      -32.6096071170        0.1948351843  MEMB      120             0.0000000000
     17053       148  DOPC      H16Y          -21.2348133696      -33.9029038059       -0.7588585747  MEMB      120             0.0000000000
     17054       148  DOPC      C317          -19.8599158854      -32.6825292424        0.3568724860  MEMB      120             0.0000000000
     17055       148  DOPC      H17X          -19.2212096351      -33.5788027214        0.1854108651  MEMB      120             0.0000000000
     17056       148  DOPC      H17Y          -19.2934159959      -31.7972202330       -0.0082623829  MEMB      120             0.0000000000
     17057       148  DOPC      C318          -20.1470699426      -32.5271690076        1.8524418420  MEMB      120             0.0000000000
     17058       148  DOPC      H18X          -20.8031250372      -31.6464864111        2.0296535536  MEMB      120             0.0000000000
     17059       148  DOPC      H18Y          -20.6619221281      -33.4282444059        2.2511818820  MEMB      120             0.0000000000
     17060       148  DOPC      H18Z          -19.2017983520      -32.3823712056        2.4163763950  MEMB      120             0.0000000000
     17061       149  DOPC      N             -11.6624529857      -33.1559705572      -20.6405903468  MEMB      121             0.0000000000
     17062       149  DOPC      C12           -10.4430076222      -34.0515304180      -20.7788428725  MEMB      121             0.0000000000
     17063       149  DOPC      H12A          -10.0220661168      -33.9809837348      -21.7749413213  MEMB      121             0.0000000000
     17064       149  DOPC      H12B          -10.7595904409      -35.0910060742      -20.6591939843  MEMB      121             0.0000000000
     17065       149  DOPC      C13           -12.5231244089      -33.7928052208      -19.5931736800  MEMB      121             0.0000000000
     17066       149  DOPC      H13A          -12.8433578081      -34.7859934035      -19.9134480539  MEMB      121             0.0000000000
     17067       149  DOPC      H13B          -11.9061654023      -33.9440750628      -18.7043336482  MEMB      121             0.0000000000
     17068       149  DOPC      H13C          -13.3704943482      -33.1801274402      -19.3642164461  MEMB      121             0.0000000000
     17069       149  DOPC      C14           -12.4557823011      -33.0858404373      -21.9003814394  MEMB      121             0.0000000000
     17070       149  DOPC      H14A          -13.0480130768      -33.9855157667      -22.0427402889  MEMB      121             0.0000000000
     17071       149  DOPC      H14B          -13.1039694391      -32.2306803535      -21.9114771341  MEMB      121             0.0000000000
     17072       149  DOPC      H14C          -11.8073691446      -33.0770685275      -22.7668034602  MEMB      121             0.0000000000
     17073       149  DOPC      C15           -11.2218611587      -31.8037979045      -20.1765635272  MEMB      121             0.0000000000
     17074       149  DOPC      H15A          -12.0432004713      -31.1535989899      -19.9260415992  MEMB      121             0.0000000000
     17075       149  DOPC      H15B          -10.5873594599      -31.3097945793      -20.8999951827  MEMB      121             0.0000000000
     17076       149  DOPC      H15C          -10.6229319220      -31.9497589184      -19.2689656436  MEMB      121             0.0000000000
     17077       149  DOPC      C11            -9.3272550976      -33.8012586626      -19.7408726430  MEMB      121             0.0000000000
     17078       149  DOPC      H11A           -8.5405034119      -34.5810976715      -19.9157058829  MEMB      121             0.0000000000
     17079       149  DOPC      H11B           -8.8172372236      -32.8316079947      -19.9354991151  MEMB      121             0.0000000000
     17080       149  DOPC      P              -9.4677535354      -35.0190065142      -17.4629479883  MEMB      121             0.0000000000
     17081       149  DOPC      O13            -9.9083824889      -36.2510076201      -18.1382680249  MEMB      121             0.0000000000
     17082       149  DOPC      O14            -9.9360228711      -34.7503327407      -16.0837901974  MEMB      121             0.0000000000
     17083       149  DOPC      O12            -9.8569390717      -33.7952550823      -18.3954467674  MEMB      121             0.0000000000
     17084       149  DOPC      O11            -7.8849839422      -34.9039840936      -17.5652315772  MEMB      121             0.0000000000
     17085       149  DOPC      C1             -7.2274757573      -33.6455862345      -17.4422850608  MEMB      121             0.0000000000
     17086       149  DOPC      HA             -7.9280212895      -32.7795221376      -17.5121123173  MEMB      121             0.0000000000
     17087       149  DOPC      HB             -6.4959122971      -33.5422906274      -18.2744510855  MEMB      121             0.0000000000
     17088       149  DOPC      C2             -6.4813994935      -33.5322852505      -16.0960459112  MEMB      121             0.0000000000
     17089       149  DOPC      HS             -5.5760237000      -34.1745372432      -16.2081766108  MEMB      121             0.0000000000
     17090       149  DOPC      O21            -7.3105011943      -33.9807840016      -15.0049070447  MEMB      121             0.0000000000
     17091       149  DOPC      C21            -6.6319629069      -34.3436529653      -13.9428018721  MEMB      121             0.0000000000
     17092       149  DOPC      O22            -5.4119457749      -34.4195070089      -13.8934570916  MEMB      121             0.0000000000
     17093       149  DOPC      C22            -7.5796718216      -34.6138567543      -12.7558842387  MEMB      121             0.0000000000
     17094       149  DOPC      H2R            -8.0385510911      -35.6066452047      -12.9246032568  MEMB      121             0.0000000000
     17095       149  DOPC      H2S            -8.4033910215      -33.8775353942      -12.7514963656  MEMB      121             0.0000000000
     17096       149  DOPC      C3             -6.0804661339      -32.0592849351      -15.8537780022  MEMB      121             0.0000000000
     17097       149  DOPC      HX             -5.5635102931      -31.6729446122      -16.7578886609  MEMB      121             0.0000000000
     17098       149  DOPC      HY             -5.3641655288      -32.0251977792      -14.9991784963  MEMB      121             0.0000000000
     17099       149  DOPC      O31            -7.2853522078      -31.3009073644      -15.6112568211  MEMB      121             0.0000000000
     17100       149  DOPC      C31            -7.1598562473      -30.4385751439      -14.6043804238  MEMB      121             0.0000000000
     17101       149  DOPC      O32            -6.5820415621      -29.3714061416      -14.6938800777  MEMB      121             0.0000000000
     17102       149  DOPC      C32            -7.7220160845      -31.0454323425      -13.2976096786  MEMB      121             0.0000000000
     17103       149  DOPC      H2X            -8.7108686716      -30.5911960912      -13.1033269715  MEMB      121             0.0000000000
     17104       149  DOPC      H2Y            -7.9299067791      -32.1078775619      -13.4895527998  MEMB      121             0.0000000000
     17105       149  DOPC      C23            -6.8587056953      -34.5442493808      -11.3835499832  MEMB      121             0.0000000000
     17106       149  DOPC      H3R            -6.5030320634      -33.5193066543      -11.1856661411  MEMB      121             0.0000000000
     17107       149  DOPC      H3S            -5.9009593982      -35.1079263231      -11.4450937791  MEMB      121             0.0000000000
     17108       149  DOPC      C24            -7.6610153330      -35.1005535801      -10.1758501415  MEMB      121             0.0000000000
     17109       149  DOPC      H4R            -7.2105586162      -34.6802910395       -9.2499183228  MEMB      121             0.0000000000
     17110       149  DOPC      H4S            -7.5128731381      -36.2004794620      -10.1358415177  MEMB      121             0.0000000000
     17111       149  DOPC      C25            -9.1925970632      -34.9310316854      -10.1315771721  MEMB      121             0.0000000000
     17112       149  DOPC      H5R            -9.6260732695      -35.1476082059      -11.1331273716  MEMB      121             0.0000000000
     17113       149  DOPC      H5S            -9.4378475734      -33.8799455254       -9.8787124092  MEMB      121             0.0000000000
     17114       149  DOPC      C26            -9.8455369939      -35.9186071452       -9.1302141262  MEMB      121             0.0000000000
     17115       149  DOPC      H6R            -9.0861088549      -36.2937775820       -8.4112812636  MEMB      121             0.0000000000
     17116       149  DOPC      H6S           -10.1961196186      -36.8069349082       -9.6987897902  MEMB      121             0.0000000000
     17117       149  DOPC      C27           -11.0312024033      -35.3666542351       -8.3217558552  MEMB      121             0.0000000000
     17118       149  DOPC      H7R           -11.5090470122      -36.2076867864       -7.7646797255  MEMB      121             0.0000000000
     17119       149  DOPC      H7S           -11.7944452775      -34.9848305038       -9.0357588230  MEMB      121             0.0000000000
     17120       149  DOPC      C28           -10.6466140781      -34.2456025135       -7.3374563615  MEMB      121             0.0000000000
     17121       149  DOPC      H8R           -11.5674329115      -33.6407430106       -7.1565271295  MEMB      121             0.0000000000
     17122       149  DOPC      H8S            -9.8986516420      -33.5657079859       -7.7902230844  MEMB      121             0.0000000000
     17123       149  DOPC      C29           -10.1679785459      -34.7361329358       -6.0038270321  MEMB      121             0.0000000000
     17124       149  DOPC      H9R           -11.0225320570      -34.9544403341       -5.3528686811  MEMB      121             0.0000000000
     17125       149  DOPC      C210           -8.9165028177      -34.9709211628       -5.5487771472  MEMB      121             0.0000000000
     17126       149  DOPC      H10R           -8.8042876545      -35.3217894053       -4.5130440981  MEMB      121             0.0000000000
     17127       149  DOPC      C211           -7.5935696501      -34.8158315218       -6.2614579073  MEMB      121             0.0000000000
     17128       149  DOPC      H11R           -7.6867324394      -35.2410422573       -7.2794689396  MEMB      121             0.0000000000
     17129       149  DOPC      H11S           -6.8266694602      -35.3911623347       -5.7180425436  MEMB      121             0.0000000000
     17130       149  DOPC      C212           -6.9179541679      -33.4438366308       -6.3873926802  MEMB      121             0.0000000000
     17131       149  DOPC      H12R           -7.7547561340      -32.7695389876       -6.6685359630  MEMB      121             0.0000000000
     17132       149  DOPC      H12S           -6.1603474715      -33.4429296135       -7.1974543569  MEMB      121             0.0000000000
     17133       149  DOPC      C213           -6.3385986116      -32.8734960105       -5.0855668073  MEMB      121             0.0000000000
     17134       149  DOPC      H13R           -7.0681988735      -33.1696590298       -4.3069788589  MEMB      121             0.0000000000
     17135       149  DOPC      H13S           -6.2975098564      -31.7677858864       -5.2210185640  MEMB      121             0.0000000000
     17136       149  DOPC      C214           -4.9700844256      -33.2172580286       -4.4989557986  MEMB      121             0.0000000000
     17137       149  DOPC      H14R           -4.1650956476      -32.7703674731       -5.1189271136  MEMB      121             0.0000000000
     17138       149  DOPC      H14S           -4.8490495835      -34.2874039916       -4.5380115463  MEMB      121             0.0000000000
     17139       149  DOPC      C215           -4.8420185631      -32.7592985691       -3.0183576596  MEMB      121             0.0000000000
     17140       149  DOPC      H15R           -5.3404583213      -31.7705786605       -2.9211966571  MEMB      121             0.0000000000
     17141       149  DOPC      H15S           -3.7615806683      -32.6199209888       -2.7860272376  MEMB      121             0.0000000000
     17142       149  DOPC      C216           -5.4194248753      -33.7339429732       -1.9578548613  MEMB      121             0.0000000000
     17143       149  DOPC      H16R           -4.7909987811      -34.6508107923       -1.9371271768  MEMB      121             0.0000000000
     17144       149  DOPC      H16S           -6.4434936625      -34.0510250215       -2.2430691289  MEMB      121             0.0000000000
     17145       149  DOPC      C217           -5.4644721172      -33.1630475974       -0.5236665336  MEMB      121             0.0000000000
     17146       149  DOPC      H17R           -6.2757492252      -32.4015266376       -0.4584916875  MEMB      121             0.0000000000
     17147       149  DOPC      H17S           -4.5049189174      -32.6357499183       -0.3196877272  MEMB      121             0.0000000000
     17148       149  DOPC      C218           -5.6783630997      -34.2234825060        0.5722036495  MEMB      121             0.0000000000
     17149       149  DOPC      H18R           -5.0145581298      -35.0986543846        0.4105019583  MEMB      121             0.0000000000
     17150       149  DOPC      H18S           -6.7346489670      -34.5680655046        0.5940518231  MEMB      121             0.0000000000
     17151       149  DOPC      H18T           -5.4314593827      -33.8178098218        1.5762423074  MEMB      121             0.0000000000
     17152       149  DOPC      C33            -6.7604216608      -30.8493947872      -12.0805334323  MEMB      121             0.0000000000
     17153       149  DOPC      H3X            -6.4707288956      -29.7710367428      -12.0500530305  MEMB      121             0.0000000000
     17154       149  DOPC      H3Y            -5.8265565783      -31.4397734548      -12.2165821629  MEMB      121             0.0000000000
     17155       149  DOPC      C34            -7.3620376551      -31.1698638381      -10.6937497671  MEMB      121             0.0000000000
     17156       149  DOPC      H4X            -7.8479101125      -32.1640339994      -10.6564999120  MEMB      121             0.0000000000
     17157       149  DOPC      H4Y            -8.1725137373      -30.4554357564      -10.5120631242  MEMB      121             0.0000000000
     17158       149  DOPC      C35            -6.4017873673      -31.0147075771       -9.4980631377  MEMB      121             0.0000000000
     17159       149  DOPC      H5X            -5.6713580735      -30.2041008069       -9.7046058271  MEMB      121             0.0000000000
     17160       149  DOPC      H5Y            -5.8183179148      -31.9552873652       -9.3647617403  MEMB      121             0.0000000000
     17161       149  DOPC      C36            -7.1552429727      -30.6889669440       -8.1824882686  MEMB      121             0.0000000000
     17162       149  DOPC      H6X            -7.9490129680      -31.4590706600       -8.0762717853  MEMB      121             0.0000000000
     17163       149  DOPC      H6Y            -6.4452325079      -30.7731366559       -7.3309490581  MEMB      121             0.0000000000
     17164       149  DOPC      C37            -7.8530382691      -29.3116206707       -8.1582184280  MEMB      121             0.0000000000
     17165       149  DOPC      H7X            -7.2283690807      -28.6189858798       -8.7507491196  MEMB      121             0.0000000000
     17166       149  DOPC      H7Y            -8.8056146697      -29.4123064119       -8.7172571580  MEMB      121             0.0000000000
     17167       149  DOPC      C38            -8.2153422595      -28.6704438624       -6.7865442821  MEMB      121             0.0000000000
     17168       149  DOPC      H8X            -9.0090444710      -29.2461859067       -6.2984055155  MEMB      121             0.0000000000
     17169       149  DOPC      H8Y            -8.6770824579      -27.6785644885       -6.9944345606  MEMB      121             0.0000000000
     17170       149  DOPC      C39            -7.0950838880      -28.5268354147       -5.8000452493  MEMB      121             0.0000000000
     17171       149  DOPC      H9X            -6.2415835743      -27.9762840236       -6.1839922889  MEMB      121             0.0000000000
     17172       149  DOPC      C310           -7.1101708135      -28.8693364171       -4.5012761243  MEMB      121             0.0000000000
     17173       149  DOPC      H10X           -6.1882781226      -28.8124020563       -3.9138430624  MEMB      121             0.0000000000
     17174       149  DOPC      C311           -8.2663244878      -29.4689289911       -3.7576805136  MEMB      121             0.0000000000
     17175       149  DOPC      H11X           -9.1167912530      -28.7956272129       -3.9092712947  MEMB      121             0.0000000000
     17176       149  DOPC      H11Y           -8.0012347346      -29.4675448146       -2.6810552092  MEMB      121             0.0000000000
     17177       149  DOPC      C312           -8.5481652867      -30.9240942914       -4.1816638264  MEMB      121             0.0000000000
     17178       149  DOPC      H12X           -7.6018309727      -31.3637258473       -3.8251719908  MEMB      121             0.0000000000
     17179       149  DOPC      H12Y           -8.6142290932      -31.0219073579       -5.2871550192  MEMB      121             0.0000000000
     17180       149  DOPC      C313           -9.6190276879      -31.8248530816       -3.5069756521  MEMB      121             0.0000000000
     17181       149  DOPC      H13X          -10.4922195564      -31.2481593485       -3.1644124332  MEMB      121             0.0000000000
     17182       149  DOPC      H13Y           -9.9870301637      -32.5382177832       -4.2855445157  MEMB      121             0.0000000000
     17183       149  DOPC      C314           -8.9801379403      -32.6783262613       -2.3858154146  MEMB      121             0.0000000000
     17184       149  DOPC      H14X           -8.4023303002      -33.4901827449       -2.8702767987  MEMB      121             0.0000000000
     17185       149  DOPC      H14Y           -8.2492504154      -32.0241979839       -1.8547229466  MEMB      121             0.0000000000
     17186       149  DOPC      C315           -9.8446737479      -33.3370443333       -1.2865349190  MEMB      121             0.0000000000
     17187       149  DOPC      H15X          -10.1243307821      -32.5817850165       -0.5349367665  MEMB      121             0.0000000000
     17188       149  DOPC      H15Y           -9.1779896420      -34.0277343891       -0.7247145965  MEMB      121             0.0000000000
     17189       149  DOPC      C316          -11.1223081084      -34.0868188670       -1.6936692598  MEMB      121             0.0000000000
     17190       149  DOPC      H16X          -11.6796976390      -34.3405502314       -0.7621542279  MEMB      121             0.0000000000
     17191       149  DOPC      H16Y          -11.7844665172      -33.4255096663       -2.2982888114  MEMB      121             0.0000000000
     17192       149  DOPC      C317          -10.8781824154      -35.3925245410       -2.4565906823  MEMB      121             0.0000000000
     17193       149  DOPC      H17X          -11.7670676136      -36.0557566050       -2.3526900209  MEMB      121             0.0000000000
     17194       149  DOPC      H17Y          -10.8132637285      -35.1146257830       -3.5146150520  MEMB      121             0.0000000000
     17195       149  DOPC      C318           -9.6033721130      -36.1611322938       -2.1114042324  MEMB      121             0.0000000000
     17196       149  DOPC      H18X           -8.6935675248      -35.5797207721       -2.3664999619  MEMB      121             0.0000000000
     17197       149  DOPC      H18Y           -9.5670662380      -36.4168876256       -1.0311628608  MEMB      121             0.0000000000
     17198       149  DOPC      H18Z           -9.5610469569      -37.0883419463       -2.7205558074  MEMB      121             0.0000000000
     17199       150  DOPC      N             -34.0580267817      -14.2828148293      -17.6514924013  MEMB      122             0.0000000000
     17200       150  DOPC      C12           -34.9878459558      -15.3788747322      -17.2173498360  MEMB      122             0.0000000000
     17201       150  DOPC      H12A          -34.9310161416      -15.5492601441      -16.1511349760  MEMB      122             0.0000000000
     17202       150  DOPC      H12B          -34.6127298774      -16.3018522292      -17.6668318201  MEMB      122             0.0000000000
     17203       150  DOPC      C13           -33.2841742316      -14.7695973056      -18.8526304982  MEMB      122             0.0000000000
     17204       150  DOPC      H13A          -32.6403157064      -13.9979654295      -19.2610543022  MEMB      122             0.0000000000
     17205       150  DOPC      H13B          -32.6904656094      -15.6458909297      -18.6201453170  MEMB      122             0.0000000000
     17206       150  DOPC      H13C          -33.9813077312      -15.0237717175      -19.6588597903  MEMB      122             0.0000000000
     17207       150  DOPC      C14           -33.1208397441      -13.8928525121      -16.5684732627  MEMB      122             0.0000000000
     17208       150  DOPC      H14A          -33.6005804029      -13.3920158727      -15.7364915082  MEMB      122             0.0000000000
     17209       150  DOPC      H14B          -32.5609152251      -14.7419540865      -16.1944792576  MEMB      122             0.0000000000
     17210       150  DOPC      H14C          -32.4184526457      -13.1807410873      -16.9822053409  MEMB      122             0.0000000000
     17211       150  DOPC      C15           -34.8372885389      -13.1093780576      -18.1317513659  MEMB      122             0.0000000000
     17212       150  DOPC      H15A          -35.6126599148      -13.4675326225      -18.8160940045  MEMB      122             0.0000000000
     17213       150  DOPC      H15B          -34.2134963259      -12.4915270188      -18.7567103964  MEMB      122             0.0000000000
     17214       150  DOPC      H15C          -35.3187645802      -12.5851369188      -17.3338989597  MEMB      122             0.0000000000
     17215       150  DOPC      C11           -36.4580437506      -15.2689952730      -17.6634327798  MEMB      122             0.0000000000
     17216       150  DOPC      H11A          -36.9909106234      -16.2117323602      -17.4023902506  MEMB      122             0.0000000000
     17217       150  DOPC      H11B          -36.9686746703      -14.4457905418      -17.1350763609  MEMB      122             0.0000000000
     17218       150  DOPC      P             -37.0254016102      -16.0530663016      -20.0829619435  MEMB      122             0.0000000000
     17219       150  DOPC      O13           -36.3791603188      -15.7918324706      -21.4024028466  MEMB      122             0.0000000000
     17220       150  DOPC      O14           -38.5074658038      -16.0384642302      -19.9750277438  MEMB      122             0.0000000000
     17221       150  DOPC      O12           -36.5301396159      -14.9990446507      -19.0459940337  MEMB      122             0.0000000000
     17222       150  DOPC      O11           -36.4483617443      -17.3847374310      -19.4050292084  MEMB      122             0.0000000000
     17223       150  DOPC      C1            -35.1095852243      -17.8528831128      -19.6405675101  MEMB      122             0.0000000000
     17224       150  DOPC      HA            -34.4285083830      -17.0064955207      -19.8626249383  MEMB      122             0.0000000000
     17225       150  DOPC      HB            -35.1296471582      -18.5142940993      -20.5360603905  MEMB      122             0.0000000000
     17226       150  DOPC      C2            -34.4678878270      -18.6689045049      -18.4465593541  MEMB      122             0.0000000000
     17227       150  DOPC      HS            -34.8780591401      -19.6944457650      -18.5306832405  MEMB      122             0.0000000000
     17228       150  DOPC      O21           -34.7650562357      -18.0644546993      -17.1670600792  MEMB      122             0.0000000000
     17229       150  DOPC      C21           -35.7688198162      -18.6165138358      -16.4910948155  MEMB      122             0.0000000000
     17230       150  DOPC      O22           -36.3607279723      -19.6328254044      -16.7949988599  MEMB      122             0.0000000000
     17231       150  DOPC      C22           -36.1008629519      -17.8170372672      -15.2236704271  MEMB      122             0.0000000000
     17232       150  DOPC      H2R           -36.8149274568      -18.4358453760      -14.6384742132  MEMB      122             0.0000000000
     17233       150  DOPC      H2S           -36.6281256636      -16.8950415402      -15.5164889705  MEMB      122             0.0000000000
     17234       150  DOPC      C3            -32.9112932827      -18.8489697240      -18.5383370925  MEMB      122             0.0000000000
     17235       150  DOPC      HX            -32.4534515479      -17.8616369988      -18.7782602295  MEMB      122             0.0000000000
     17236       150  DOPC      HY            -32.6885702623      -19.5267127494      -19.3951981838  MEMB      122             0.0000000000
     17237       150  DOPC      O31           -32.3950583516      -19.4487762855      -17.3159288051  MEMB      122             0.0000000000
     17238       150  DOPC      C31           -31.5504359098      -18.7206564058      -16.5744497961  MEMB      122             0.0000000000
     17239       150  DOPC      O32           -31.0062750601      -17.6922479530      -16.9360010173  MEMB      122             0.0000000000
     17240       150  DOPC      C32           -31.4504773871      -19.3121977462      -15.1564543854  MEMB      122             0.0000000000
     17241       150  DOPC      H2X           -32.4863171613      -19.3745447301      -14.7634272167  MEMB      122             0.0000000000
     17242       150  DOPC      H2Y           -31.0613081657      -20.3403608254      -15.2619877730  MEMB      122             0.0000000000
     17243       150  DOPC      C23           -34.9008086092      -17.4499166320      -14.3249688882  MEMB      122             0.0000000000
     17244       150  DOPC      H3R           -34.0601200762      -17.0458303322      -14.9331500686  MEMB      122             0.0000000000
     17245       150  DOPC      H3S           -34.5312782507      -18.3614175934      -13.8033570818  MEMB      122             0.0000000000
     17246       150  DOPC      C24           -35.2994413779      -16.3962637246      -13.2831228326  MEMB      122             0.0000000000
     17247       150  DOPC      H4R           -36.0826449280      -16.8274414281      -12.6152402441  MEMB      122             0.0000000000
     17248       150  DOPC      H4S           -35.7225153180      -15.5105422547      -13.8034629421  MEMB      122             0.0000000000
     17249       150  DOPC      C25           -34.1185258056      -15.9626881826      -12.4145032432  MEMB      122             0.0000000000
     17250       150  DOPC      H5R           -33.2421951104      -15.7264707641      -13.0592567167  MEMB      122             0.0000000000
     17251       150  DOPC      H5S           -33.8387234766      -16.8228625989      -11.7640175283  MEMB      122             0.0000000000
     17252       150  DOPC      C26           -34.4097471949      -14.7557742753      -11.5107765010  MEMB      122             0.0000000000
     17253       150  DOPC      H6R           -35.3505481685      -14.9272351198      -10.9403454236  MEMB      122             0.0000000000
     17254       150  DOPC      H6S           -34.5398601910      -13.8430770561      -12.1300982925  MEMB      122             0.0000000000
     17255       150  DOPC      C27           -33.2744176723      -14.5282979122      -10.4999258287  MEMB      122             0.0000000000
     17256       150  DOPC      H7R           -32.2985962489      -14.6242144177      -11.0273378524  MEMB      122             0.0000000000
     17257       150  DOPC      H7S           -33.3105045683      -15.3412132932       -9.7387190757  MEMB      122             0.0000000000
     17258       150  DOPC      C28           -33.3093736876      -13.1542719703       -9.8010759723  MEMB      122             0.0000000000
     17259       150  DOPC      H8R           -33.1662664679      -12.3649978947      -10.5734179487  MEMB      122             0.0000000000
     17260       150  DOPC      H8S           -32.4261277565      -13.0940997114       -9.1245803771  MEMB      122             0.0000000000
     17261       150  DOPC      C29           -34.5667490739      -12.8767371669       -9.0174091560  MEMB      122             0.0000000000
     17262       150  DOPC      H9R           -35.3053837487      -12.2444700103       -9.5292722170  MEMB      122             0.0000000000
     17263       150  DOPC      C210          -34.8606536611      -13.3548177870       -7.7953560084  MEMB      122             0.0000000000
     17264       150  DOPC      H10R          -35.8110759138      -13.0652051857       -7.3207441169  MEMB      122             0.0000000000
     17265       150  DOPC      C211          -33.9902884487      -14.2681290248       -6.9705878077  MEMB      122             0.0000000000
     17266       150  DOPC      H11R          -33.5803327615      -13.7256754567       -6.0925742453  MEMB      122             0.0000000000
     17267       150  DOPC      H11S          -33.1104572573      -14.6274158124       -7.5512303871  MEMB      122             0.0000000000
     17268       150  DOPC      C212          -34.7751268454      -15.5116588169       -6.5032172746  MEMB      122             0.0000000000
     17269       150  DOPC      H12R          -34.0431586406      -16.3035971131       -6.2324366954  MEMB      122             0.0000000000
     17270       150  DOPC      H12S          -35.3694390113      -15.9242129534       -7.3503295398  MEMB      122             0.0000000000
     17271       150  DOPC      C213          -35.7010494324      -15.2741026870       -5.2914113735  MEMB      122             0.0000000000
     17272       150  DOPC      H13R          -36.1897118528      -16.2440984120       -5.0431978461  MEMB      122             0.0000000000
     17273       150  DOPC      H13S          -36.5051517771      -14.5632459661       -5.5854125482  MEMB      122             0.0000000000
     17274       150  DOPC      C214          -35.0001464472      -14.7396541196       -4.0214481106  MEMB      122             0.0000000000
     17275       150  DOPC      H14R          -35.7187361786      -14.7770160399       -3.1724582031  MEMB      122             0.0000000000
     17276       150  DOPC      H14S          -34.7386717728      -13.6702048942       -4.1835291404  MEMB      122             0.0000000000
     17277       150  DOPC      C215          -33.7189602262      -15.5056069694       -3.6388179219  MEMB      122             0.0000000000
     17278       150  DOPC      H15R          -33.0359673752      -15.5080250996       -4.5183482223  MEMB      122             0.0000000000
     17279       150  DOPC      H15S          -33.9735992061      -16.5628269448       -3.4114461916  MEMB      122             0.0000000000
     17280       150  DOPC      C216          -32.9046902361      -14.8778028649       -2.4915640092  MEMB      122             0.0000000000
     17281       150  DOPC      H16R          -32.7267222863      -13.8067449841       -2.7130137079  MEMB      122             0.0000000000
     17282       150  DOPC      H16S          -31.9049956452      -15.3735369343       -2.4697502731  MEMB      122             0.0000000000
     17283       150  DOPC      C217          -33.5152569330      -15.0177903982       -1.0929008963  MEMB      122             0.0000000000
     17284       150  DOPC      H17R          -34.5311949663      -14.5670027064       -1.0640682128  MEMB      122             0.0000000000
     17285       150  DOPC      H17S          -32.8763786866      -14.4505714728       -0.3753787726  MEMB      122             0.0000000000
     17286       150  DOPC      C218          -33.6043201458      -16.4681512451       -0.6440566745  MEMB      122             0.0000000000
     17287       150  DOPC      H18R          -33.6645534091      -16.5539605724        0.4585101554  MEMB      122             0.0000000000
     17288       150  DOPC      H18S          -32.7241118576      -17.0351858327       -0.9960086659  MEMB      122             0.0000000000
     17289       150  DOPC      H18T          -34.4944090478      -16.9608620028       -1.0807348939  MEMB      122             0.0000000000
     17290       150  DOPC      C33           -30.5863847267      -18.4935926196      -14.1438765513  MEMB      122             0.0000000000
     17291       150  DOPC      H3X           -30.8369606848      -17.4133431085      -14.2290233811  MEMB      122             0.0000000000
     17292       150  DOPC      H3Y           -29.5083907043      -18.6032246333      -14.4003785211  MEMB      122             0.0000000000
     17293       150  DOPC      C34           -30.7810554967      -18.9121764767      -12.6656142344  MEMB      122             0.0000000000
     17294       150  DOPC      H4X           -29.9302792366      -19.5663956039      -12.3617656173  MEMB      122             0.0000000000
     17295       150  DOPC      H4Y           -31.7163005516      -19.5022969114      -12.5701163729  MEMB      122             0.0000000000
     17296       150  DOPC      C35           -30.8442370322      -17.7647914679      -11.6361282644  MEMB      122             0.0000000000
     17297       150  DOPC      H5X           -31.2772976811      -16.8404234011      -12.0693846710  MEMB      122             0.0000000000
     17298       150  DOPC      H5Y           -29.8024113854      -17.5417082425      -11.3594555271  MEMB      122             0.0000000000
     17299       150  DOPC      C36           -31.5332297216      -18.1292654912      -10.3002540502  MEMB      122             0.0000000000
     17300       150  DOPC      H6X           -31.3035782128      -17.3275479095       -9.5617704092  MEMB      122             0.0000000000
     17301       150  DOPC      H6Y           -32.6328319128      -18.1590710097      -10.4450523138  MEMB      122             0.0000000000
     17302       150  DOPC      C37           -31.0737603158      -19.5021770383       -9.7844282055  MEMB      122             0.0000000000
     17303       150  DOPC      H7X           -31.5222624505      -20.2913256081      -10.4251716558  MEMB      122             0.0000000000
     17304       150  DOPC      H7Y           -29.9884671103      -19.5894549763       -9.9735665761  MEMB      122             0.0000000000
     17305       150  DOPC      C38           -31.2794883055      -19.8689963128       -8.2896522961  MEMB      122             0.0000000000
     17306       150  DOPC      H8X           -30.2681537554      -19.8583109834       -7.8269719051  MEMB      122             0.0000000000
     17307       150  DOPC      H8Y           -31.5447808861      -20.9397984330       -8.2878407107  MEMB      122             0.0000000000
     17308       150  DOPC      C39           -32.2703933627      -19.1541332762       -7.4034815586  MEMB      122             0.0000000000
     17309       150  DOPC      H9X           -33.3372839955      -19.2971973195       -7.6482263043  MEMB      122             0.0000000000
     17310       150  DOPC      C310          -31.9541874459      -18.5054573592       -6.2646643321  MEMB      122             0.0000000000
     17311       150  DOPC      H10X          -32.7704544058      -18.0693750810       -5.6662298646  MEMB      122             0.0000000000
     17312       150  DOPC      C311          -30.5819232000      -18.3478481641       -5.6384226768  MEMB      122             0.0000000000
     17313       150  DOPC      H11X          -30.5074182781      -17.3382516655       -5.1776044805  MEMB      122             0.0000000000
     17314       150  DOPC      H11Y          -29.7744214734      -18.4114228281       -6.3851506287  MEMB      122             0.0000000000
     17315       150  DOPC      C312          -30.1350994723      -19.4257923517       -4.6274586610  MEMB      122             0.0000000000
     17316       150  DOPC      H12X          -29.3683601238      -18.9936977090       -3.9457261646  MEMB      122             0.0000000000
     17317       150  DOPC      H12Y          -29.6399690381      -20.2508794089       -5.1935260049  MEMB      122             0.0000000000
     17318       150  DOPC      C313          -31.2778005552      -20.0395273636       -3.8226337037  MEMB      122             0.0000000000
     17319       150  DOPC      H13X          -32.0144112600      -20.4722891843       -4.5351495656  MEMB      122             0.0000000000
     17320       150  DOPC      H13Y          -30.8836062184      -20.8885140659       -3.2223976353  MEMB      122             0.0000000000
     17321       150  DOPC      C314          -31.9675636066      -19.0185896782       -2.9111378011  MEMB      122             0.0000000000
     17322       150  DOPC      H14X          -31.2576526899      -18.7182510427       -2.1148438689  MEMB      122             0.0000000000
     17323       150  DOPC      H14Y          -32.2148864193      -18.1015435245       -3.4906427761  MEMB      122             0.0000000000
     17324       150  DOPC      C315          -33.2749506062      -19.5372811715       -2.3110248261  MEMB      122             0.0000000000
     17325       150  DOPC      H15X          -33.9710929919      -19.7711062059       -3.1459578787  MEMB      122             0.0000000000
     17326       150  DOPC      H15Y          -33.7843130508      -18.7487851143       -1.7353624640  MEMB      122             0.0000000000
     17327       150  DOPC      C316          -33.1211390160      -20.7427637638       -1.3834664441  MEMB      122             0.0000000000
     17328       150  DOPC      H16X          -32.0992344459      -21.1773500748       -1.4444807592  MEMB      122             0.0000000000
     17329       150  DOPC      H16Y          -33.2744596373      -20.4159654543       -0.3287757894  MEMB      122             0.0000000000
     17330       150  DOPC      C317          -34.1498536681      -21.8133763493       -1.7335367189  MEMB      122             0.0000000000
     17331       150  DOPC      H17X          -34.0945101821      -22.5705802195       -0.9230823428  MEMB      122             0.0000000000
     17332       150  DOPC      H17Y          -35.1680262441      -21.3632425139       -1.7029894516  MEMB      122             0.0000000000
     17333       150  DOPC      C318          -33.9213051725      -22.4625713021       -3.1064958943  MEMB      122             0.0000000000
     17334       150  DOPC      H18X          -33.6979432934      -21.7115619836       -3.8892928868  MEMB      122             0.0000000000
     17335       150  DOPC      H18Y          -33.0561354835      -23.1553224509       -3.0547209337  MEMB      122             0.0000000000
     17336       150  DOPC      H18Z          -34.8093681729      -23.0426560126       -3.4335001693  MEMB      122             0.0000000000
     17337       151  DOPC      N             -24.8490106578      -27.9698440846      -17.7564907997  MEMB      123             0.0000000000
     17338       151  DOPC      C12           -25.9790674797      -28.7709190361      -18.3777176497  MEMB      123             0.0000000000
     17339       151  DOPC      H12A          -26.9026587382      -28.5297864159      -17.8426866559  MEMB      123             0.0000000000
     17340       151  DOPC      H12B          -25.8001672143      -29.8259543362      -18.1936522415  MEMB      123             0.0000000000
     17341       151  DOPC      C13           -24.4927204156      -28.5915553637      -16.4485885631  MEMB      123             0.0000000000
     17342       151  DOPC      H13A          -25.3631796425      -28.7901173892      -15.8395421833  MEMB      123             0.0000000000
     17343       151  DOPC      H13B          -24.0196384794      -29.5576623751      -16.6361898606  MEMB      123             0.0000000000
     17344       151  DOPC      H13C          -23.7616340746      -28.0037547969      -15.9179736813  MEMB      123             0.0000000000
     17345       151  DOPC      C14           -25.2915498623      -26.5476222726      -17.6563927816  MEMB      123             0.0000000000
     17346       151  DOPC      H14A          -26.1167682156      -26.4150458291      -16.9719527776  MEMB      123             0.0000000000
     17347       151  DOPC      H14B          -24.4868043905      -25.8777645604      -17.4236316389  MEMB      123             0.0000000000
     17348       151  DOPC      H14C          -25.6927237572      -26.2497707760      -18.6361133084  MEMB      123             0.0000000000
     17349       151  DOPC      C15           -23.6380973895      -28.0465962270      -18.6249467256  MEMB      123             0.0000000000
     17350       151  DOPC      H15A          -23.2560972819      -29.0660060726      -18.7060400590  MEMB      123             0.0000000000
     17351       151  DOPC      H15B          -22.7583130405      -27.5307215870      -18.2290022586  MEMB      123             0.0000000000
     17352       151  DOPC      H15C          -23.8489734882      -27.6803315820      -19.6193614907  MEMB      123             0.0000000000
     17353       151  DOPC      C11           -26.2529859202      -28.5454475805      -19.8733867235  MEMB      123             0.0000000000
     17354       151  DOPC      H11A          -25.3350440764      -28.6939907698      -20.4780347961  MEMB      123             0.0000000000
     17355       151  DOPC      H11B          -26.9542260181      -29.3235376969      -20.2577540828  MEMB      123             0.0000000000
     17356       151  DOPC      P             -28.2823919210      -26.8598957966      -20.0799310346  MEMB      123             0.0000000000
     17357       151  DOPC      O13           -28.6542772180      -26.5434835947      -21.4750950862  MEMB      123             0.0000000000
     17358       151  DOPC      O14           -28.5638370806      -25.9015682846      -18.9983149821  MEMB      123             0.0000000000
     17359       151  DOPC      O12           -26.7295547950      -27.2159362427      -20.0447546990  MEMB      123             0.0000000000
     17360       151  DOPC      O11           -28.8659992994      -28.2888433054      -19.7484267836  MEMB      123             0.0000000000
     17361       151  DOPC      C1            -29.9927337095      -28.4700517887      -18.9201619586  MEMB      123             0.0000000000
     17362       151  DOPC      HA            -30.8287247213      -28.7868641999      -19.5621414004  MEMB      123             0.0000000000
     17363       151  DOPC      HB            -30.3756614084      -27.5135789947      -18.4845711822  MEMB      123             0.0000000000
     17364       151  DOPC      C2            -29.6586027891      -29.4713493748      -17.7717018336  MEMB      123             0.0000000000
     17365       151  DOPC      HS            -30.6253883212      -29.8262909463      -17.3341080805  MEMB      123             0.0000000000
     17366       151  DOPC      O21           -28.8562110412      -28.8062044597      -16.7917859078  MEMB      123             0.0000000000
     17367       151  DOPC      C21           -29.6115872415      -27.9454664244      -16.1351687652  MEMB      123             0.0000000000
     17368       151  DOPC      O22           -30.8283218178      -27.9775002732      -16.0693742909  MEMB      123             0.0000000000
     17369       151  DOPC      C22           -28.6834996095      -26.8811618871      -15.5834594070  MEMB      123             0.0000000000
     17370       151  DOPC      H2R           -28.8894244201      -25.9775655016      -16.2010600675  MEMB      123             0.0000000000
     17371       151  DOPC      H2S           -27.6368377658      -27.1827669457      -15.7904765803  MEMB      123             0.0000000000
     17372       151  DOPC      C3            -28.8999087196      -30.7722912791      -18.1189143466  MEMB      123             0.0000000000
     17373       151  DOPC      HX            -27.9315488447      -30.5375891196      -18.6087606567  MEMB      123             0.0000000000
     17374       151  DOPC      HY            -29.4701128344      -31.3770317769      -18.8483172575  MEMB      123             0.0000000000
     17375       151  DOPC      O31           -28.7720078099      -31.5114387683      -16.8801156180  MEMB      123             0.0000000000
     17376       151  DOPC      C31           -27.6378222648      -31.2532884823      -16.1823947163  MEMB      123             0.0000000000
     17377       151  DOPC      O32           -26.5937718845      -30.9170225590      -16.6917185900  MEMB      123             0.0000000000
     17378       151  DOPC      C32           -27.9705273592      -31.2757932020      -14.6918943689  MEMB      123             0.0000000000
     17379       151  DOPC      H2X           -28.9746435207      -30.8099463224      -14.5993726537  MEMB      123             0.0000000000
     17380       151  DOPC      H2Y           -28.0070719646      -32.3274818139      -14.3649274217  MEMB      123             0.0000000000
     17381       151  DOPC      C23           -28.8260093056      -26.5394754800      -14.0851635998  MEMB      123             0.0000000000
     17382       151  DOPC      H3R           -28.8519771105      -27.4400714174      -13.4369090169  MEMB      123             0.0000000000
     17383       151  DOPC      H3S           -29.7799423886      -25.9797416166      -13.9479942274  MEMB      123             0.0000000000
     17384       151  DOPC      C24           -27.6382337847      -25.6459592382      -13.7187753583  MEMB      123             0.0000000000
     17385       151  DOPC      H4R           -27.8492497462      -24.9893179526      -12.8525562163  MEMB      123             0.0000000000
     17386       151  DOPC      H4S           -27.4934503313      -25.0039941725      -14.6132613075  MEMB      123             0.0000000000
     17387       151  DOPC      C25           -26.3305760551      -26.3899597056      -13.4572421337  MEMB      123             0.0000000000
     17388       151  DOPC      H5R           -25.4772051500      -25.7530951455      -13.7721888770  MEMB      123             0.0000000000
     17389       151  DOPC      H5S           -26.2791751652      -27.3213948757      -14.0618402882  MEMB      123             0.0000000000
     17390       151  DOPC      C26           -26.1363408212      -26.7052500674      -11.9771902430  MEMB      123             0.0000000000
     17391       151  DOPC      H6R           -26.0255909253      -27.8010618814      -11.9228083468  MEMB      123             0.0000000000
     17392       151  DOPC      H6S           -27.0111768138      -26.4018863560      -11.3580237034  MEMB      123             0.0000000000
     17393       151  DOPC      C27           -24.8540184621      -26.1057542917      -11.3984758173  MEMB      123             0.0000000000
     17394       151  DOPC      H7R           -24.9757439733      -25.0102470363      -11.2559088227  MEMB      123             0.0000000000
     17395       151  DOPC      H7S           -24.0400614899      -26.2846784331      -12.1401136383  MEMB      123             0.0000000000
     17396       151  DOPC      C28           -24.4827158047      -26.7639495215      -10.0682533234  MEMB      123             0.0000000000
     17397       151  DOPC      H8R           -24.7707734410      -27.8376316704      -10.1349521158  MEMB      123             0.0000000000
     17398       151  DOPC      H8S           -25.1059793917      -26.3445240485       -9.2518053641  MEMB      123             0.0000000000
     17399       151  DOPC      C29           -23.0072288439      -26.6258293634       -9.7986366417  MEMB      123             0.0000000000
     17400       151  DOPC      H9R           -22.5508514291      -25.6624096165      -10.0690384756  MEMB      123             0.0000000000
     17401       151  DOPC      C210          -22.2494718424      -27.5809713170       -9.2431137217  MEMB      123             0.0000000000
     17402       151  DOPC      H10R          -21.1738266666      -27.4129161066       -9.0962345982  MEMB      123             0.0000000000
     17403       151  DOPC      C211          -22.7630380582      -28.9199171340       -8.7988956483  MEMB      123             0.0000000000
     17404       151  DOPC      H11R          -21.9084172358      -29.5475059449       -8.4812449729  MEMB      123             0.0000000000
     17405       151  DOPC      H11S          -23.2650897992      -29.4657269190       -9.6268339782  MEMB      123             0.0000000000
     17406       151  DOPC      C212          -23.7366928510      -28.7128650112       -7.6240050703  MEMB      123             0.0000000000
     17407       151  DOPC      H12R          -24.7050023783      -28.3266622922       -7.9993813177  MEMB      123             0.0000000000
     17408       151  DOPC      H12S          -23.3432103402      -27.9297499616       -6.9354830872  MEMB      123             0.0000000000
     17409       151  DOPC      C213          -23.9942102532      -29.9667726408       -6.7932750002  MEMB      123             0.0000000000
     17410       151  DOPC      H13R          -23.0558943284      -30.5389724196       -6.6449594691  MEMB      123             0.0000000000
     17411       151  DOPC      H13S          -24.6959270425      -30.6348661956       -7.3357419581  MEMB      123             0.0000000000
     17412       151  DOPC      C214          -24.5544471718      -29.6119117373       -5.4124091850  MEMB      123             0.0000000000
     17413       151  DOPC      H14R          -25.3986477663      -28.9287069203       -5.5696609086  MEMB      123             0.0000000000
     17414       151  DOPC      H14S          -23.8549130192      -29.0038549066       -4.8079415768  MEMB      123             0.0000000000
     17415       151  DOPC      C215          -24.8998191741      -30.8856538110       -4.6402587182  MEMB      123             0.0000000000
     17416       151  DOPC      H15R          -24.0050325285      -31.5404000404       -4.6820551306  MEMB      123             0.0000000000
     17417       151  DOPC      H15S          -25.7339205259      -31.4023327028       -5.1674344299  MEMB      123             0.0000000000
     17418       151  DOPC      C216          -25.2593733430      -30.6674067084       -3.1678676055  MEMB      123             0.0000000000
     17419       151  DOPC      H16R          -26.2097073052      -30.1186590632       -3.1282203472  MEMB      123             0.0000000000
     17420       151  DOPC      H16S          -24.5211020074      -30.0138254175       -2.6757026737  MEMB      123             0.0000000000
     17421       151  DOPC      C217          -25.3970169156      -31.9498378942       -2.3383206380  MEMB      123             0.0000000000
     17422       151  DOPC      H17R          -26.0478004024      -31.7186065028       -1.4638520295  MEMB      123             0.0000000000
     17423       151  DOPC      H17S          -24.4029096974      -32.2383152878       -1.9384487511  MEMB      123             0.0000000000
     17424       151  DOPC      C218          -25.9999534397      -33.1246854109       -3.0980997625  MEMB      123             0.0000000000
     17425       151  DOPC      H18R          -26.9863300594      -32.8295488703       -3.5052825201  MEMB      123             0.0000000000
     17426       151  DOPC      H18S          -26.1338270516      -34.0159580066       -2.4494366167  MEMB      123             0.0000000000
     17427       151  DOPC      H18T          -25.3609328225      -33.4326888791       -3.9429857243  MEMB      123             0.0000000000
     17428       151  DOPC      C33           -27.0478463359      -30.5709530871      -13.6605162377  MEMB      123             0.0000000000
     17429       151  DOPC      H3X           -26.8009555642      -29.5342871441      -13.9702542052  MEMB      123             0.0000000000
     17430       151  DOPC      H3Y           -26.1043061192      -31.1505214539      -13.5561422400  MEMB      123             0.0000000000
     17431       151  DOPC      C34           -27.8360670929      -30.5643174639      -12.3333396127  MEMB      123             0.0000000000
     17432       151  DOPC      H4X           -28.3027177226      -31.5720248335      -12.2248646798  MEMB      123             0.0000000000
     17433       151  DOPC      H4Y           -28.6739063485      -29.8395172505      -12.4309276452  MEMB      123             0.0000000000
     17434       151  DOPC      C35           -27.1011491692      -30.3018453850      -11.0087659534  MEMB      123             0.0000000000
     17435       151  DOPC      H5X           -26.5885932172      -29.3313613435      -10.9968759862  MEMB      123             0.0000000000
     17436       151  DOPC      H5Y           -26.3212853026      -31.0742993585      -10.8385355901  MEMB      123             0.0000000000
     17437       151  DOPC      C36           -28.1174750260      -30.2905442061       -9.8483454266  MEMB      123             0.0000000000
     17438       151  DOPC      H6X           -28.8712680978      -29.4948151657      -10.0300367455  MEMB      123             0.0000000000
     17439       151  DOPC      H6Y           -28.6574942603      -31.2618276518       -9.8798232647  MEMB      123             0.0000000000
     17440       151  DOPC      C37           -27.4961382841      -30.1066292819       -8.4559134047  MEMB      123             0.0000000000
     17441       151  DOPC      H7X           -28.0896271319      -30.6718700183       -7.7010324894  MEMB      123             0.0000000000
     17442       151  DOPC      H7Y           -26.4825986497      -30.5635612057       -8.4734769208  MEMB      123             0.0000000000
     17443       151  DOPC      C38           -27.3757598496      -28.6345149292       -8.0026822404  MEMB      123             0.0000000000
     17444       151  DOPC      H8X           -26.9171442162      -28.0445833254       -8.8250184857  MEMB      123             0.0000000000
     17445       151  DOPC      H8Y           -26.6452749061      -28.6203254024       -7.1707756445  MEMB      123             0.0000000000
     17446       151  DOPC      C39           -28.6619483708      -27.9875034074       -7.5566814001  MEMB      123             0.0000000000
     17447       151  DOPC      H9X           -29.4852444976      -28.0295598002       -8.2839783938  MEMB      123             0.0000000000
     17448       151  DOPC      C310          -28.8771226711      -27.3799980138       -6.3750543505  MEMB      123             0.0000000000
     17449       151  DOPC      H10X          -29.8704528085      -26.9605304842       -6.1755307318  MEMB      123             0.0000000000
     17450       151  DOPC      C311          -27.9004443458      -27.2059938801       -5.2388409979  MEMB      123             0.0000000000
     17451       151  DOPC      H11X          -28.2889661362      -26.4568759913       -4.5110180273  MEMB      123             0.0000000000
     17452       151  DOPC      H11Y          -26.9294559814      -26.8017892655       -5.6062385473  MEMB      123             0.0000000000
     17453       151  DOPC      C312          -27.6398334712      -28.5194835085       -4.4737862898  MEMB      123             0.0000000000
     17454       151  DOPC      H12X          -26.9310003328      -28.2824674220       -3.6504600269  MEMB      123             0.0000000000
     17455       151  DOPC      H12Y          -27.2079077806      -29.2822488799       -5.1512042518  MEMB      123             0.0000000000
     17456       151  DOPC      C313          -28.8925461375      -29.2093236593       -3.9397433679  MEMB      123             0.0000000000
     17457       151  DOPC      H13X          -29.5900753310      -28.3662498313       -3.8260435834  MEMB      123             0.0000000000
     17458       151  DOPC      H13Y          -29.2990851079      -29.8767491018       -4.7324034494  MEMB      123             0.0000000000
     17459       151  DOPC      C314          -28.7656672474      -30.0084954870       -2.6219433168  MEMB      123             0.0000000000
     17460       151  DOPC      H14X          -29.7322137979      -30.5283326078       -2.4401118441  MEMB      123             0.0000000000
     17461       151  DOPC      H14Y          -28.0250109410      -30.8253533732       -2.7302587795  MEMB      123             0.0000000000
     17462       151  DOPC      C315          -28.4220900022      -29.1270077722       -1.4093617468  MEMB      123             0.0000000000
     17463       151  DOPC      H15X          -28.6548942860      -28.0687441225       -1.6572482791  MEMB      123             0.0000000000
     17464       151  DOPC      H15Y          -27.3212353642      -29.1670849387       -1.2526501686  MEMB      123             0.0000000000
     17465       151  DOPC      C316          -29.1547037241      -29.4739707511       -0.0906666622  MEMB      123             0.0000000000
     17466       151  DOPC      H16X          -29.8191388548      -28.6123451329        0.1403973268  MEMB      123             0.0000000000
     17467       151  DOPC      H16Y          -29.8069209263      -30.3529546596       -0.2227440606  MEMB      123             0.0000000000
     17468       151  DOPC      C317          -28.1336032825      -29.6109976252        1.0570235516  MEMB      123             0.0000000000
     17469       151  DOPC      H17X          -27.2388801931      -30.0993561872        0.6035821876  MEMB      123             0.0000000000
     17470       151  DOPC      H17Y          -27.9401107114      -28.5460561436        1.2943633594  MEMB      123             0.0000000000
     17471       151  DOPC      C318          -28.3180538226      -30.3356426408        2.4046415126  MEMB      123             0.0000000000
     17472       151  DOPC      H18X          -27.4609960640      -30.1030401833        3.0730750930  MEMB      123             0.0000000000
     17473       151  DOPC      H18Y          -29.2419684271      -30.0710907979        2.9473064542  MEMB      123             0.0000000000
     17474       151  DOPC      H18Z          -28.2500154223      -31.4326496324        2.2855920845  MEMB      123             0.0000000000
     17475       152  DOPC      N              30.6141620096       23.2581498519      -20.2222196632  MEMB      124             0.0000000000
     17476       152  DOPC      C12            31.0568399458       21.7927127432      -20.2596342091  MEMB      124             0.0000000000
     17477       152  DOPC      H12A           31.8922253859       21.7099939349      -20.9403363472  MEMB      124             0.0000000000
     17478       152  DOPC      H12B           30.2466638196       21.2212994020      -20.7353047213  MEMB      124             0.0000000000
     17479       152  DOPC      C13            30.5768759211       23.6934540403      -21.6547805687  MEMB      124             0.0000000000
     17480       152  DOPC      H13A           31.5963795207       23.7812842947      -22.0328941000  MEMB      124             0.0000000000
     17481       152  DOPC      H13B           30.0610086896       22.9485034784      -22.2614724330  MEMB      124             0.0000000000
     17482       152  DOPC      H13C           30.0914532362       24.6479192204      -21.7915866225  MEMB      124             0.0000000000
     17483       152  DOPC      C14            31.5150995881       24.1682246283      -19.4401480477  MEMB      124             0.0000000000
     17484       152  DOPC      H14A           31.2191613002       25.2098974422      -19.5696242754  MEMB      124             0.0000000000
     17485       152  DOPC      H14B           31.4553479529       23.9237076658      -18.3784791931  MEMB      124             0.0000000000
     17486       152  DOPC      H14C           32.5345177265       24.0818092414      -19.7873401870  MEMB      124             0.0000000000
     17487       152  DOPC      C15            29.2732179917       23.2789547678      -19.5772878559  MEMB      124             0.0000000000
     17488       152  DOPC      H15A           29.3996316406       22.9151323428      -18.5496608093  MEMB      124             0.0000000000
     17489       152  DOPC      H15B           28.6038423374       22.5254292123      -19.9951972001  MEMB      124             0.0000000000
     17490       152  DOPC      H15C           28.8138202801       24.2402893905      -19.5565160224  MEMB      124             0.0000000000
     17491       152  DOPC      C11            31.4327913152       21.0702838570      -18.9422467340  MEMB      124             0.0000000000
     17492       152  DOPC      H11A           31.7644091973       20.0317175806      -19.1874605742  MEMB      124             0.0000000000
     17493       152  DOPC      H11B           32.3092546240       21.5854004472      -18.4954419132  MEMB      124             0.0000000000
     17494       152  DOPC      P              29.1402400117       20.0835412389      -18.1026256503  MEMB      124             0.0000000000
     17495       152  DOPC      O13            29.6201583898       18.7717697684      -18.6048041275  MEMB      124             0.0000000000
     17496       152  DOPC      O14            28.0711029613       20.8029563714      -18.8392621771  MEMB      124             0.0000000000
     17497       152  DOPC      O12            30.3800116862       21.0718203038      -17.9863782056  MEMB      124             0.0000000000
     17498       152  DOPC      O11            28.7842978262       19.9341247106      -16.5780225976  MEMB      124             0.0000000000
     17499       152  DOPC      C1             27.6218030171       20.4841044023      -15.9639245312  MEMB      124             0.0000000000
     17500       152  DOPC      HA             27.3796581792       19.8254340940      -15.1008206655  MEMB      124             0.0000000000
     17501       152  DOPC      HB             26.7412646289       20.4731644333      -16.6450993041  MEMB      124             0.0000000000
     17502       152  DOPC      C2             27.8320927929       21.9106154464      -15.3730264457  MEMB      124             0.0000000000
     17503       152  DOPC      HS             27.9083324437       22.6284236969      -16.2212303026  MEMB      124             0.0000000000
     17504       152  DOPC      O21            29.0070524361       21.8753293319      -14.5529967752  MEMB      124             0.0000000000
     17505       152  DOPC      C21            30.0296846576       22.5931330354      -14.9544551765  MEMB      124             0.0000000000
     17506       152  DOPC      O22            30.0309924035       23.4210744306      -15.8516356441  MEMB      124             0.0000000000
     17507       152  DOPC      C22            31.2215115908       22.3560036815      -14.0104653035  MEMB      124             0.0000000000
     17508       152  DOPC      H2R            31.3649226548       23.3244252971      -13.4927344361  MEMB      124             0.0000000000
     17509       152  DOPC      H2S            32.1134412366       22.1599503419      -14.6375031477  MEMB      124             0.0000000000
     17510       152  DOPC      C3             26.6173238925       22.3217842855      -14.4808511037  MEMB      124             0.0000000000
     17511       152  DOPC      HX             26.4880030563       21.4721060373      -13.7660932837  MEMB      124             0.0000000000
     17512       152  DOPC      HY             25.7102083220       22.3776000692      -15.1229572709  MEMB      124             0.0000000000
     17513       152  DOPC      O31            26.8111338247       23.5827046251      -13.7797574655  MEMB      124             0.0000000000
     17514       152  DOPC      C31            25.9769476971       23.7183422148      -12.7383684212  MEMB      124             0.0000000000
     17515       152  DOPC      O32            25.1508640781       22.8963208761      -12.4021107158  MEMB      124             0.0000000000
     17516       152  DOPC      C32            26.2119669734       25.0094817041      -11.9797850746  MEMB      124             0.0000000000
     17517       152  DOPC      H2X            26.0778024009       25.8723712934      -12.6560768267  MEMB      124             0.0000000000
     17518       152  DOPC      H2Y            25.4337083290       25.0640618229      -11.1870070584  MEMB      124             0.0000000000
     17519       152  DOPC      C23            31.0310190073       21.2410127588      -12.9454570029  MEMB      124             0.0000000000
     17520       152  DOPC      H3R            31.1910035768       20.2431275823      -13.4100659785  MEMB      124             0.0000000000
     17521       152  DOPC      H3S            29.9885020883       21.2689085837      -12.5524788369  MEMB      124             0.0000000000
     17522       152  DOPC      C24            31.9311634608       21.4093592721      -11.7107229205  MEMB      124             0.0000000000
     17523       152  DOPC      H4R            31.8684988327       22.4652427836      -11.3657069898  MEMB      124             0.0000000000
     17524       152  DOPC      H4S            32.9923276961       21.1958037595      -11.9718461236  MEMB      124             0.0000000000
     17525       152  DOPC      C25            31.4912494677       20.5084689792      -10.5472090320  MEMB      124             0.0000000000
     17526       152  DOPC      H5R            31.7074342001       19.4522832390      -10.8320441388  MEMB      124             0.0000000000
     17527       152  DOPC      H5S            30.3942832427       20.5908823501      -10.3786783436  MEMB      124             0.0000000000
     17528       152  DOPC      C26            32.2340092477       20.8129365112       -9.2389739050  MEMB      124             0.0000000000
     17529       152  DOPC      H6R            33.3083782948       20.9656422614       -9.4639320979  MEMB      124             0.0000000000
     17530       152  DOPC      H6S            32.1218695681       19.9285020511       -8.5673281527  MEMB      124             0.0000000000
     17531       152  DOPC      C27            31.7234476261       22.0155546770       -8.4356724636  MEMB      124             0.0000000000
     17532       152  DOPC      H7R            30.6511448974       21.8092217090       -8.2728505608  MEMB      124             0.0000000000
     17533       152  DOPC      H7S            31.8346065131       22.9644450400       -9.0063321707  MEMB      124             0.0000000000
     17534       152  DOPC      C28            32.4132513303       22.0932649277       -7.0591563671  MEMB      124             0.0000000000
     17535       152  DOPC      H8R            33.5003343503       22.1440117832       -7.2602822168  MEMB      124             0.0000000000
     17536       152  DOPC      H8S            32.2092468976       21.1234531481       -6.5523610294  MEMB      124             0.0000000000
     17537       152  DOPC      C29            32.1147507163       23.2131155714       -6.1071936789  MEMB      124             0.0000000000
     17538       152  DOPC      H9R            32.8285599536       24.0520365432       -6.1264232516  MEMB      124             0.0000000000
     17539       152  DOPC      C210           31.0672911462       23.3106465613       -5.2843196119  MEMB      124             0.0000000000
     17540       152  DOPC      H10R           31.0530065905       24.1819356102       -4.6246989979  MEMB      124             0.0000000000
     17541       152  DOPC      C211           29.9124895618       22.3609341714       -5.0833636289  MEMB      124             0.0000000000
     17542       152  DOPC      H11R           30.1166503874       21.3373612180       -5.4635411450  MEMB      124             0.0000000000
     17543       152  DOPC      H11S           29.0669632718       22.7170788755       -5.6838912154  MEMB      124             0.0000000000
     17544       152  DOPC      C212           29.3967026677       22.3301595163       -3.6340336651  MEMB      124             0.0000000000
     17545       152  DOPC      H12R           29.7497432296       23.2125653222       -3.0522625474  MEMB      124             0.0000000000
     17546       152  DOPC      H12S           29.8532788226       21.4321971942       -3.1641513004  MEMB      124             0.0000000000
     17547       152  DOPC      C213           27.8578066598       22.2712308403       -3.4541069405  MEMB      124             0.0000000000
     17548       152  DOPC      H13R           27.4249627887       21.4894741129       -4.1097561731  MEMB      124             0.0000000000
     17549       152  DOPC      H13S           27.3910296121       23.2418698992       -3.7296552646  MEMB      124             0.0000000000
     17550       152  DOPC      C214           27.5985582035       21.9146910702       -1.9856873676  MEMB      124             0.0000000000
     17551       152  DOPC      H14R           27.8215640591       22.7705956842       -1.3356106717  MEMB      124             0.0000000000
     17552       152  DOPC      H14S           28.3578365046       21.1381328411       -1.7680950994  MEMB      124             0.0000000000
     17553       152  DOPC      C215           26.2600107636       21.3523458398       -1.5077096959  MEMB      124             0.0000000000
     17554       152  DOPC      H15R           25.8933036262       20.5851988549       -2.2190723132  MEMB      124             0.0000000000
     17555       152  DOPC      H15S           25.4857923631       22.1473284617       -1.4325012038  MEMB      124             0.0000000000
     17556       152  DOPC      C216           26.4854765861       20.7308330344       -0.1135033358  MEMB      124             0.0000000000
     17557       152  DOPC      H16R           27.5717321536       20.5444751913        0.0507863929  MEMB      124             0.0000000000
     17558       152  DOPC      H16S           25.9732693666       19.7507598820       -0.0312294337  MEMB      124             0.0000000000
     17559       152  DOPC      C217           26.0444382929       21.6421304764        1.0307349380  MEMB      124             0.0000000000
     17560       152  DOPC      H17R           24.9624050777       21.8470616351        0.9260909644  MEMB      124             0.0000000000
     17561       152  DOPC      H17S           26.5729605311       22.6118565351        0.9362701244  MEMB      124             0.0000000000
     17562       152  DOPC      C218           26.3413344073       21.0547293285        2.4106423853  MEMB      124             0.0000000000
     17563       152  DOPC      H18R           27.4349879897       20.9624735115        2.5621209207  MEMB      124             0.0000000000
     17564       152  DOPC      H18S           25.8897836118       20.0450142577        2.5063371639  MEMB      124             0.0000000000
     17565       152  DOPC      H18T           25.9459288051       21.7170877755        3.2108331972  MEMB      124             0.0000000000
     17566       152  DOPC      C33            27.6024880939       25.0042689323      -11.3317902325  MEMB      124             0.0000000000
     17567       152  DOPC      H3X            27.7108560229       25.9445498957      -10.7417356242  MEMB      124             0.0000000000
     17568       152  DOPC      H3Y            28.4106954457       24.9799724200      -12.0911514515  MEMB      124             0.0000000000
     17569       152  DOPC      C34            27.8063090598       23.7923499909      -10.4276772983  MEMB      124             0.0000000000
     17570       152  DOPC      H4X            27.8677088231       22.8470774818      -11.0119513558  MEMB      124             0.0000000000
     17571       152  DOPC      H4Y            26.9204192174       23.7080792686       -9.7638630022  MEMB      124             0.0000000000
     17572       152  DOPC      C35            29.0849382407       23.9472060294       -9.6171739527  MEMB      124             0.0000000000
     17573       152  DOPC      H5X            29.3962323088       25.0143474029       -9.6510258272  MEMB      124             0.0000000000
     17574       152  DOPC      H5Y            29.9156867696       23.3954592790      -10.1096477644  MEMB      124             0.0000000000
     17575       152  DOPC      C36            28.9078461547       23.5381567120       -8.1490374685  MEMB      124             0.0000000000
     17576       152  DOPC      H6X            28.7921913468       22.4382169706       -8.0541548818  MEMB      124             0.0000000000
     17577       152  DOPC      H6Y            29.8568687452       23.8175869948       -7.6380588149  MEMB      124             0.0000000000
     17578       152  DOPC      C37            27.7251062612       24.1857069757       -7.4046564253  MEMB      124             0.0000000000
     17579       152  DOPC      H7X            26.7824344778       23.6792561666       -7.6931306434  MEMB      124             0.0000000000
     17580       152  DOPC      H7Y            27.8038870147       24.0005283893       -6.3136651687  MEMB      124             0.0000000000
     17581       152  DOPC      C38            27.6569015376       25.7074720427       -7.5807011008  MEMB      124             0.0000000000
     17582       152  DOPC      H8X            26.9711535151       26.1067255809       -6.8067254032  MEMB      124             0.0000000000
     17583       152  DOPC      H8Y            27.2449996779       25.9639423317       -8.5775610144  MEMB      124             0.0000000000
     17584       152  DOPC      C39            29.0458861809       26.2466083245       -7.3785830561  MEMB      124             0.0000000000
     17585       152  DOPC      H9X            29.5783841040       26.5772697769       -8.2829460133  MEMB      124             0.0000000000
     17586       152  DOPC      C310           29.6291995685       26.3615889594       -6.1825157463  MEMB      124             0.0000000000
     17587       152  DOPC      H10X           30.6590339648       26.7333526139       -6.0960665922  MEMB      124             0.0000000000
     17588       152  DOPC      C311           28.9526354572       25.9779570546       -4.9034603774  MEMB      124             0.0000000000
     17589       152  DOPC      H11X           29.4006444758       25.1169211488       -4.3880899871  MEMB      124             0.0000000000
     17590       152  DOPC      H11Y           27.8892691396       25.6804086574       -5.0270312134  MEMB      124             0.0000000000
     17591       152  DOPC      C312           28.9434125076       27.2333619746       -4.0574206815  MEMB      124             0.0000000000
     17592       152  DOPC      H12X           28.2813977596       27.0064851493       -3.2011338131  MEMB      124             0.0000000000
     17593       152  DOPC      H12Y           28.5392182520       28.1047958833       -4.6100377492  MEMB      124             0.0000000000
     17594       152  DOPC      C313           30.1381991969       27.5235021664       -3.2040940436  MEMB      124             0.0000000000
     17595       152  DOPC      H13X           30.9554456582       28.0407710411       -3.7493073639  MEMB      124             0.0000000000
     17596       152  DOPC      H13Y           29.6874271662       28.1726621286       -2.4309891307  MEMB      124             0.0000000000
     17597       152  DOPC      C314           30.6023725253       26.2430608242       -2.5386340894  MEMB      124             0.0000000000
     17598       152  DOPC      H14X           29.7298505005       25.5839750486       -2.3439044832  MEMB      124             0.0000000000
     17599       152  DOPC      H14Y           31.1851286382       25.8139085253       -3.3692734763  MEMB      124             0.0000000000
     17600       152  DOPC      C315           31.4114918460       26.3745612402       -1.2535415395  MEMB      124             0.0000000000
     17601       152  DOPC      H15X           30.7365004037       26.4352615190       -0.3692704043  MEMB      124             0.0000000000
     17602       152  DOPC      H15Y           31.9706940680       27.3302973972       -1.2716065635  MEMB      124             0.0000000000
     17603       152  DOPC      C316           32.3980875869       25.2147207680       -1.0356587762  MEMB      124             0.0000000000
     17604       152  DOPC      H16X           33.2526112382       25.6702988041       -0.4995777585  MEMB      124             0.0000000000
     17605       152  DOPC      H16Y           31.9255003036       24.4396363976       -0.3942939943  MEMB      124             0.0000000000
     17606       152  DOPC      C317           32.9179884545       24.5111141616       -2.2978294237  MEMB      124             0.0000000000
     17607       152  DOPC      H17X           32.0531329733       24.1886199399       -2.9040456364  MEMB      124             0.0000000000
     17608       152  DOPC      H17Y           33.5435026436       25.2277277957       -2.8715420548  MEMB      124             0.0000000000
     17609       152  DOPC      C318           33.6967713840       23.2236920209       -2.1038628457  MEMB      124             0.0000000000
     17610       152  DOPC      H18X           33.3880044332       22.6918852699       -1.1790989308  MEMB      124             0.0000000000
     17611       152  DOPC      H18Y           33.5326101205       22.5423794288       -2.9685543763  MEMB      124             0.0000000000
     17612       152  DOPC      H18Z           34.7685742862       23.4887087459       -2.0625846430  MEMB      124             0.0000000000
     17613       153  DOPC      N             -34.0416095705       17.4228504194      -19.5693055334  MEMB      125             0.0000000000
     17614       153  DOPC      C12           -33.6740528659       18.9029153315      -19.5426225908  MEMB      125             0.0000000000
     17615       153  DOPC      H12A          -34.4163790199       19.4221956446      -18.9574190683  MEMB      125             0.0000000000
     17616       153  DOPC      H12B          -33.7232580158       19.2764515090      -20.5648817039  MEMB      125             0.0000000000
     17617       153  DOPC      C13           -33.7663689167       16.7691152746      -18.2557271652  MEMB      125             0.0000000000
     17618       153  DOPC      H13A          -33.8344812076       15.6919653218      -18.3488044847  MEMB      125             0.0000000000
     17619       153  DOPC      H13B          -32.7295213757       16.9722540839      -17.9729361875  MEMB      125             0.0000000000
     17620       153  DOPC      H13C          -34.4188067852       17.1077097982      -17.4683506125  MEMB      125             0.0000000000
     17621       153  DOPC      C14           -33.1795812523       16.7270504638      -20.5731948049  MEMB      125             0.0000000000
     17622       153  DOPC      H14A          -33.2967998629       17.1413867520      -21.5639601977  MEMB      125             0.0000000000
     17623       153  DOPC      H14B          -32.1356574226       16.8578882417      -20.2720769448  MEMB      125             0.0000000000
     17624       153  DOPC      H14C          -33.3526099666       15.6591271733      -20.5958199208  MEMB      125             0.0000000000
     17625       153  DOPC      C15           -35.4770696775       17.2596333909      -19.9289533322  MEMB      125             0.0000000000
     17626       153  DOPC      H15A          -35.7206073814       17.8372892112      -20.8210581068  MEMB      125             0.0000000000
     17627       153  DOPC      H15B          -36.1025575729       17.6092624989      -19.1219311340  MEMB      125             0.0000000000
     17628       153  DOPC      H15C          -35.7444355506       16.2220472892      -20.1251678480  MEMB      125             0.0000000000
     17629       153  DOPC      C11           -32.2876404993       19.3100301790      -18.9821127368  MEMB      125             0.0000000000
     17630       153  DOPC      H11A          -32.1919811380       20.4198162383      -19.0106219026  MEMB      125             0.0000000000
     17631       153  DOPC      H11B          -32.2660174169       19.0137017806      -17.9029609230  MEMB      125             0.0000000000
     17632       153  DOPC      P             -30.0965843114       17.9134516409      -19.0353104411  MEMB      125             0.0000000000
     17633       153  DOPC      O13           -28.9212057533       17.7508756176      -19.9244172927  MEMB      125             0.0000000000
     17634       153  DOPC      O14           -30.7494199339       16.6765719357      -18.5436801266  MEMB      125             0.0000000000
     17635       153  DOPC      O12           -31.2264739059       18.7491692507      -19.7598156516  MEMB      125             0.0000000000
     17636       153  DOPC      O11           -29.7392500399       18.8378273050      -17.8240848490  MEMB      125             0.0000000000
     17637       153  DOPC      C1            -28.7061202577       18.5188845221      -16.9114006106  MEMB      125             0.0000000000
     17638       153  DOPC      HA            -27.9459195230       19.3288103942      -16.9742601447  MEMB      125             0.0000000000
     17639       153  DOPC      HB            -28.1739479992       17.5604001108      -17.1176929047  MEMB      125             0.0000000000
     17640       153  DOPC      C2            -29.3185443441       18.5220430022      -15.4994938776  MEMB      125             0.0000000000
     17641       153  DOPC      HS            -28.4997188881       18.3209559835      -14.7677338936  MEMB      125             0.0000000000
     17642       153  DOPC      O21           -30.4217186020       17.5958063550      -15.3146856026  MEMB      125             0.0000000000
     17643       153  DOPC      C21           -30.1304715869       16.3092101602      -15.3708087443  MEMB      125             0.0000000000
     17644       153  DOPC      O22           -29.0302942617       15.8440754240      -15.6013089095  MEMB      125             0.0000000000
     17645       153  DOPC      C22           -31.3674817004       15.4618228219      -14.9825158525  MEMB      125             0.0000000000
     17646       153  DOPC      H2R           -31.0170278456       14.4201593384      -14.8567753237  MEMB      125             0.0000000000
     17647       153  DOPC      H2S           -32.0295873608       15.5011687637      -15.8743498930  MEMB      125             0.0000000000
     17648       153  DOPC      C3            -29.8764055041       19.9311144862      -15.2161083091  MEMB      125             0.0000000000
     17649       153  DOPC      HX            -30.8270039419       20.0349440390      -15.7896444395  MEMB      125             0.0000000000
     17650       153  DOPC      HY            -29.1700581859       20.7184151322      -15.5577335648  MEMB      125             0.0000000000
     17651       153  DOPC      O31           -30.0883720839       19.9890704352      -13.8124003927  MEMB      125             0.0000000000
     17652       153  DOPC      C31           -30.3507985896       21.1304498219      -13.2281153673  MEMB      125             0.0000000000
     17653       153  DOPC      O32           -30.4875124546       22.2226058360      -13.7518150941  MEMB      125             0.0000000000
     17654       153  DOPC      C32           -30.4707071606       20.7880269715      -11.7428484719  MEMB      125             0.0000000000
     17655       153  DOPC      H2X           -29.4913022663       20.3685295568      -11.4377908648  MEMB      125             0.0000000000
     17656       153  DOPC      H2Y           -30.6455427218       21.7169602259      -11.1692863036  MEMB      125             0.0000000000
     17657       153  DOPC      C23           -32.1942237585       15.8915807940      -13.7277784488  MEMB      125             0.0000000000
     17658       153  DOPC      H3R           -33.2408076858       15.5389681091      -13.8680368200  MEMB      125             0.0000000000
     17659       153  DOPC      H3S           -32.2497704376       17.0071854488      -13.7037353655  MEMB      125             0.0000000000
     17660       153  DOPC      C24           -31.6783110649       15.4089463008      -12.3404742487  MEMB      125             0.0000000000
     17661       153  DOPC      H4R           -32.2669044169       15.9441277060      -11.5566093859  MEMB      125             0.0000000000
     17662       153  DOPC      H4S           -30.6297429623       15.7146377405      -12.2649639480  MEMB      125             0.0000000000
     17663       153  DOPC      C25           -31.5943543332       13.9026805421      -11.9723123424  MEMB      125             0.0000000000
     17664       153  DOPC      H5R           -31.5362799564       13.2979457042      -12.9002462663  MEMB      125             0.0000000000
     17665       153  DOPC      H5S           -32.5868435371       13.6576076444      -11.5055133975  MEMB      125             0.0000000000
     17666       153  DOPC      C26           -30.4452814604       13.5439649726      -10.9262838093  MEMB      125             0.0000000000
     17667       153  DOPC      H6R           -30.7137478067       12.5390621552      -10.5288641433  MEMB      125             0.0000000000
     17668       153  DOPC      H6S           -30.5450332531       14.2357597551      -10.0716696120  MEMB      125             0.0000000000
     17669       153  DOPC      C27           -28.9063217111       13.4700367758      -11.3480402804  MEMB      125             0.0000000000
     17670       153  DOPC      H7R           -28.7749528515       14.0532966721      -12.2734507877  MEMB      125             0.0000000000
     17671       153  DOPC      H7S           -28.8036316740       12.4144850828      -11.7000499008  MEMB      125             0.0000000000
     17672       153  DOPC      C28           -27.6836025995       13.7526372828      -10.2720985206  MEMB      125             0.0000000000
     17673       153  DOPC      H8R           -27.3370936018       12.7005151115      -10.1344670413  MEMB      125             0.0000000000
     17674       153  DOPC      H8S           -28.1132096887       13.9843839305       -9.2905751911  MEMB      125             0.0000000000
     17675       153  DOPC      C29           -26.3729724516       14.6242517136      -10.4322974353  MEMB      125             0.0000000000
     17676       153  DOPC      H9R           -25.9226213770       14.3020071145      -11.3869670520  MEMB      125             0.0000000000
     17677       153  DOPC      C210          -25.7543054932       15.8447030364      -10.0747963024  MEMB      125             0.0000000000
     17678       153  DOPC      H10R          -24.8057545014       15.9276612109      -10.6410504668  MEMB      125             0.0000000000
     17679       153  DOPC      C211          -25.8226571205       17.2541215636       -9.3321386382  MEMB      125             0.0000000000
     17680       153  DOPC      H11R          -25.9652775421       17.9740853695      -10.1598558619  MEMB      125             0.0000000000
     17681       153  DOPC      H11S          -24.7283187401       17.3527798158       -9.1461541516  MEMB      125             0.0000000000
     17682       153  DOPC      C212          -26.1589503288       18.2457135060       -8.0434854046  MEMB      125             0.0000000000
     17683       153  DOPC      H12R          -25.6724193317       19.1978137447       -8.3694802360  MEMB      125             0.0000000000
     17684       153  DOPC      H12S          -25.5121566585       17.9313144074       -7.2236940401  MEMB      125             0.0000000000
     17685       153  DOPC      C213          -27.4824870962       18.8206093574       -7.3663737707  MEMB      125             0.0000000000
     17686       153  DOPC      H13R          -28.4453958769       18.3902777397       -7.6471506093  MEMB      125             0.0000000000
     17687       153  DOPC      H13S          -27.6257469008       19.8883516263       -7.6406019069  MEMB      125             0.0000000000
     17688       153  DOPC      C214          -27.3273611740       18.7178979873       -5.8302171707  MEMB      125             0.0000000000
     17689       153  DOPC      H14R          -26.6739591912       19.5169721464       -5.4403836343  MEMB      125             0.0000000000
     17690       153  DOPC      H14S          -26.7457781453       17.7848529541       -5.6732612841  MEMB      125             0.0000000000
     17691       153  DOPC      C215          -28.4720954916       18.5919137290       -4.7996819000  MEMB      125             0.0000000000
     17692       153  DOPC      H15R          -28.3792655993       19.4510588576       -4.1009745426  MEMB      125             0.0000000000
     17693       153  DOPC      H15S          -28.1879593032       17.6761198559       -4.2276016235  MEMB      125             0.0000000000
     17694       153  DOPC      C216          -29.9613239051       18.4674775691       -5.1295613479  MEMB      125             0.0000000000
     17695       153  DOPC      H16R          -30.1654765009       17.5300981158       -5.6877427951  MEMB      125             0.0000000000
     17696       153  DOPC      H16S          -30.3131957442       19.3260236686       -5.7464133401  MEMB      125             0.0000000000
     17697       153  DOPC      C217          -30.7785953329       18.4565813944       -3.8097123927  MEMB      125             0.0000000000
     17698       153  DOPC      H17R          -31.7873470663       18.0257563464       -3.9865284948  MEMB      125             0.0000000000
     17699       153  DOPC      H17S          -30.9176766766       19.5092296396       -3.4959240308  MEMB      125             0.0000000000
     17700       153  DOPC      C218          -30.1313785044       17.7543592729       -2.6063034977  MEMB      125             0.0000000000
     17701       153  DOPC      H18R          -29.2696606141       18.3474409013       -2.2294472589  MEMB      125             0.0000000000
     17702       153  DOPC      H18S          -29.7648093210       16.7501446255       -2.8988004246  MEMB      125             0.0000000000
     17703       153  DOPC      H18T          -30.8505866976       17.6477182049       -1.7665305451  MEMB      125             0.0000000000
     17704       153  DOPC      C33           -31.6007127603       19.7352706512      -11.5560188808  MEMB      125             0.0000000000
     17705       153  DOPC      H3X           -31.4034876077       18.8458428010      -12.2005795231  MEMB      125             0.0000000000
     17706       153  DOPC      H3Y           -32.5415196772       20.1997911293      -11.9220025381  MEMB      125             0.0000000000
     17707       153  DOPC      C34           -31.8005960597       19.2105301456      -10.1255239449  MEMB      125             0.0000000000
     17708       153  DOPC      H4X           -31.4303762061       19.9545492849       -9.3859803571  MEMB      125             0.0000000000
     17709       153  DOPC      H4Y           -31.2450228671       18.2636562949       -9.9939889349  MEMB      125             0.0000000000
     17710       153  DOPC      C35           -33.2206938648       18.7491363301       -9.7843141072  MEMB      125             0.0000000000
     17711       153  DOPC      H5X           -33.2065362294       18.3944406608       -8.7252787562  MEMB      125             0.0000000000
     17712       153  DOPC      H5Y           -33.4997485155       17.8732397626      -10.4108326198  MEMB      125             0.0000000000
     17713       153  DOPC      C36           -34.2682436468       19.8456132261       -9.9291632480  MEMB      125             0.0000000000
     17714       153  DOPC      H6X           -34.4097966155       20.1298183723      -10.9929803976  MEMB      125             0.0000000000
     17715       153  DOPC      H6Y           -35.2420584636       19.4150722570       -9.6079219513  MEMB      125             0.0000000000
     17716       153  DOPC      C37           -33.9021886329       21.0935404693       -9.1033207919  MEMB      125             0.0000000000
     17717       153  DOPC      H7X           -32.9731618683       21.5565464524       -9.5019575556  MEMB      125             0.0000000000
     17718       153  DOPC      H7Y           -34.7108176004       21.8437778496       -9.2463128828  MEMB      125             0.0000000000
     17719       153  DOPC      C38           -33.7311200392       20.8154532440       -7.5947961318  MEMB      125             0.0000000000
     17720       153  DOPC      H8X           -33.6018566301       21.7953146433       -7.0813404301  MEMB      125             0.0000000000
     17721       153  DOPC      H8Y           -32.8163411546       20.2191137124       -7.3878364739  MEMB      125             0.0000000000
     17722       153  DOPC      C39           -34.9953152692       20.1112176610       -7.1669103088  MEMB      125             0.0000000000
     17723       153  DOPC      H9X           -35.8394428572       20.3767934325       -7.8023344136  MEMB      125             0.0000000000
     17724       153  DOPC      C310          -35.2676684226       19.2662625262       -6.1667942769  MEMB      125             0.0000000000
     17725       153  DOPC      H10X          -36.3080517738       18.9306739058       -6.0473301890  MEMB      125             0.0000000000
     17726       153  DOPC      C311          -34.3382127893       18.7537995543       -5.1128311317  MEMB      125             0.0000000000
     17727       153  DOPC      H11X          -33.2669346922       18.8395627385       -5.4002354709  MEMB      125             0.0000000000
     17728       153  DOPC      H11Y          -34.5506403281       17.6888647276       -4.8739943150  MEMB      125             0.0000000000
     17729       153  DOPC      C312          -34.6050774685       19.6412499967       -3.8949650537  MEMB      125             0.0000000000
     17730       153  DOPC      H12X          -34.0788353027       19.1795228647       -3.0317399640  MEMB      125             0.0000000000
     17731       153  DOPC      H12Y          -35.6897128811       19.6664037743       -3.6323078521  MEMB      125             0.0000000000
     17732       153  DOPC      C313          -34.1155557318       21.0807275885       -4.1353865288  MEMB      125             0.0000000000
     17733       153  DOPC      H13X          -33.5672726234       21.1262716336       -5.0980608148  MEMB      125             0.0000000000
     17734       153  DOPC      H13Y          -34.9714888875       21.7827783714       -4.2025537860  MEMB      125             0.0000000000
     17735       153  DOPC      C314          -33.0905607922       21.5640170481       -3.1340152211  MEMB      125             0.0000000000
     17736       153  DOPC      H14X          -32.1647637665       20.9744207835       -3.2789877939  MEMB      125             0.0000000000
     17737       153  DOPC      H14Y          -32.8334036562       22.6205627326       -3.3475436360  MEMB      125             0.0000000000
     17738       153  DOPC      C315          -33.5214221747       21.4130309526       -1.6957981112  MEMB      125             0.0000000000
     17739       153  DOPC      H15X          -34.2220786584       20.5721377812       -1.5168236086  MEMB      125             0.0000000000
     17740       153  DOPC      H15Y          -34.0303028144       22.3365786608       -1.3693771065  MEMB      125             0.0000000000
     17741       153  DOPC      C316          -32.3225050167       21.2477225499       -0.8007627081  MEMB      125             0.0000000000
     17742       153  DOPC      H16X          -31.8059589574       20.2753828278       -0.9426171274  MEMB      125             0.0000000000
     17743       153  DOPC      H16Y          -31.5900701074       22.0570726107       -1.0437924148  MEMB      125             0.0000000000
     17744       153  DOPC      C317          -32.8063482682       21.4220710572        0.6195748482  MEMB      125             0.0000000000
     17745       153  DOPC      H17X          -32.0166681690       22.0706314946        1.0194006352  MEMB      125             0.0000000000
     17746       153  DOPC      H17Y          -33.7327221382       22.0356948534        0.6714029997  MEMB      125             0.0000000000
     17747       153  DOPC      C318          -33.0029729054       20.1116180600        1.3834886930  MEMB      125             0.0000000000
     17748       153  DOPC      H18X          -32.1123290185       19.4557843484        1.2834464628  MEMB      125             0.0000000000
     17749       153  DOPC      H18Y          -33.1811049906       20.3079434732        2.4636130201  MEMB      125             0.0000000000
     17750       153  DOPC      H18Z          -33.8871999553       19.5718920523        0.9808246003  MEMB      125             0.0000000000
     17751       154  DOPC      N              22.4134535735       31.8523881713      -19.6463430522  MEMB      126             0.0000000000
     17752       154  DOPC      C12            21.6713309062       31.6286428464      -18.3328244029  MEMB      126             0.0000000000
     17753       154  DOPC      H12A           22.3113229682       31.1079332028      -17.6372977880  MEMB      126             0.0000000000
     17754       154  DOPC      H12B           20.8051726144       31.0081670366      -18.5239738738  MEMB      126             0.0000000000
     17755       154  DOPC      C13            23.0600822353       30.5922086760      -20.1249200554  MEMB      126             0.0000000000
     17756       154  DOPC      H13A           23.7155556696       30.7671310257      -20.9671951674  MEMB      126             0.0000000000
     17757       154  DOPC      H13B           23.6222956086       30.1151403423      -19.3390537917  MEMB      126             0.0000000000
     17758       154  DOPC      H13C           22.2987682171       29.8866566630      -20.4640671038  MEMB      126             0.0000000000
     17759       154  DOPC      C14            23.4119909075       32.9338752991      -19.4403327048  MEMB      126             0.0000000000
     17760       154  DOPC      H14A           24.0493082893       33.0658401982      -20.3006300367  MEMB      126             0.0000000000
     17761       154  DOPC      H14B           22.8844701924       33.8784264522      -19.2929848421  MEMB      126             0.0000000000
     17762       154  DOPC      H14C           24.0189021613       32.7591766264      -18.5653346808  MEMB      126             0.0000000000
     17763       154  DOPC      C15            21.4374588012       32.2540563197      -20.7041831641  MEMB      126             0.0000000000
     17764       154  DOPC      H15A           21.9099401441       32.5368783232      -21.6325746488  MEMB      126             0.0000000000
     17765       154  DOPC      H15B           20.8166924358       33.0736336616      -20.3499364816  MEMB      126             0.0000000000
     17766       154  DOPC      H15C           20.7639029404       31.4305827001      -20.9108331294  MEMB      126             0.0000000000
     17767       154  DOPC      C11            21.1480883772       32.8758911394      -17.5902836633  MEMB      126             0.0000000000
     17768       154  DOPC      H11A           20.6357954675       32.5441918969      -16.6570030973  MEMB      126             0.0000000000
     17769       154  DOPC      H11B           22.0042931209       33.5186670446      -17.2741784924  MEMB      126             0.0000000000
     17770       154  DOPC      P              20.3103350053       35.0731138341      -18.7689513842  MEMB      126             0.0000000000
     17771       154  DOPC      O13            19.1366006004       35.5379710719      -19.5055089956  MEMB      126             0.0000000000
     17772       154  DOPC      O14            21.6491733123       35.4265763074      -19.3261268584  MEMB      126             0.0000000000
     17773       154  DOPC      O12            20.2129268404       33.5404399543      -18.4207144224  MEMB      126             0.0000000000
     17774       154  DOPC      O11            20.3609633816       35.6931249892      -17.3430346271  MEMB      126             0.0000000000
     17775       154  DOPC      C1             19.1684591509       35.7251598590      -16.5549892478  MEMB      126             0.0000000000
     17776       154  DOPC      HA             18.5990080735       34.7646198154      -16.5943554700  MEMB      126             0.0000000000
     17777       154  DOPC      HB             18.5087744596       36.5565778498      -16.9054117287  MEMB      126             0.0000000000
     17778       154  DOPC      C2             19.5927359431       35.9838039291      -15.1022313053  MEMB      126             0.0000000000
     17779       154  DOPC      HS             20.1893442360       36.9246125723      -15.1538397722  MEMB      126             0.0000000000
     17780       154  DOPC      O21            20.3768928273       34.8801351451      -14.6190541900  MEMB      126             0.0000000000
     17781       154  DOPC      C21            21.6815191577       34.9203378272      -14.7473640373  MEMB      126             0.0000000000
     17782       154  DOPC      O22            22.3467333547       35.7740630378      -15.3159116348  MEMB      126             0.0000000000
     17783       154  DOPC      C22            22.2648288217       33.7198755419      -14.0088867726  MEMB      126             0.0000000000
     17784       154  DOPC      H2R            23.3689717058       33.7321675888      -14.1306653176  MEMB      126             0.0000000000
     17785       154  DOPC      H2S            21.8535869986       32.7930600245      -14.4532876288  MEMB      126             0.0000000000
     17786       154  DOPC      C3             18.4292503178       36.2247418294      -14.0835972327  MEMB      126             0.0000000000
     17787       154  DOPC      HX             17.7024663528       35.3933933437      -14.2265874113  MEMB      126             0.0000000000
     17788       154  DOPC      HY             17.8856027302       37.1708944600      -14.3053044394  MEMB      126             0.0000000000
     17789       154  DOPC      O31            18.8944695641       36.1856680356      -12.7053235868  MEMB      126             0.0000000000
     17790       154  DOPC      C31            19.9179635368       36.9981931339      -12.4423613633  MEMB      126             0.0000000000
     17791       154  DOPC      O32            20.2759859568       37.9359099282      -13.1355250637  MEMB      126             0.0000000000
     17792       154  DOPC      C32            20.6499978395       36.6496215661      -11.1564915895  MEMB      126             0.0000000000
     17793       154  DOPC      H2X            21.4111248065       35.8994021384      -11.3049632317  MEMB      126             0.0000000000
     17794       154  DOPC      H2Y            21.2194211838       37.5751681145      -10.9112412900  MEMB      126             0.0000000000
     17795       154  DOPC      C23            21.9302939444       33.8133681367      -12.5096367516  MEMB      126             0.0000000000
     17796       154  DOPC      H3R            20.8397990797       33.9821782489      -12.3484346551  MEMB      126             0.0000000000
     17797       154  DOPC      H3S            22.5318321985       34.6707413445      -12.1329411310  MEMB      126             0.0000000000
     17798       154  DOPC      C24            22.3763157732       32.6254774618      -11.6767697020  MEMB      126             0.0000000000
     17799       154  DOPC      H4R            23.4778236284       32.7036487061      -11.6443904975  MEMB      126             0.0000000000
     17800       154  DOPC      H4S            22.1041457718       31.6817054204      -12.1895125035  MEMB      126             0.0000000000
     17801       154  DOPC      C25            21.8350912458       32.6040855095      -10.2383410039  MEMB      126             0.0000000000
     17802       154  DOPC      H5R            22.1336820791       31.6260989507       -9.7939545535  MEMB      126             0.0000000000
     17803       154  DOPC      H5S            20.7276098899       32.6345478230      -10.2314828329  MEMB      126             0.0000000000
     17804       154  DOPC      C26            22.3881113332       33.7066338469       -9.3294664607  MEMB      126             0.0000000000
     17805       154  DOPC      H6R            21.8846191708       34.6748548905       -9.5098962875  MEMB      126             0.0000000000
     17806       154  DOPC      H6S            23.4649213499       33.8475429754       -9.5667697279  MEMB      126             0.0000000000
     17807       154  DOPC      C27            22.2720626890       33.3343667823       -7.8458868622  MEMB      126             0.0000000000
     17808       154  DOPC      H7R            22.3965268261       32.2353099052       -7.7542094374  MEMB      126             0.0000000000
     17809       154  DOPC      H7S            21.2531722000       33.5566649042       -7.4575903510  MEMB      126             0.0000000000
     17810       154  DOPC      C28            23.3706456618       34.0002818367       -7.0011340091  MEMB      126             0.0000000000
     17811       154  DOPC      H8R            24.3306464980       34.0212583010       -7.5640610409  MEMB      126             0.0000000000
     17812       154  DOPC      H8S            23.5434624767       33.3808290816       -6.0957804739  MEMB      126             0.0000000000
     17813       154  DOPC      C29            22.9373443130       35.3742897296       -6.6007294803  MEMB      126             0.0000000000
     17814       154  DOPC      H9R            23.3946388059       36.2226723522       -7.1343930621  MEMB      126             0.0000000000
     17815       154  DOPC      C210           22.0656767144       35.5990411257       -5.6105419126  MEMB      126             0.0000000000
     17816       154  DOPC      H10R           21.7774913498       36.6389159189       -5.3980721609  MEMB      126             0.0000000000
     17817       154  DOPC      C211           21.3788379234       34.5708824455       -4.7317119698  MEMB      126             0.0000000000
     17818       154  DOPC      H11R           21.8374377043       33.5580401388       -4.7714464281  MEMB      126             0.0000000000
     17819       154  DOPC      H11S           20.3127461970       34.4554693044       -5.0356464714  MEMB      126             0.0000000000
     17820       154  DOPC      C212           21.3997604352       35.0818434863       -3.2824692506  MEMB      126             0.0000000000
     17821       154  DOPC      H12R           20.3682912167       35.0774659932       -2.8754480617  MEMB      126             0.0000000000
     17822       154  DOPC      H12S           21.7198970880       36.1358520618       -3.2808760940  MEMB      126             0.0000000000
     17823       154  DOPC      C213           22.3761910770       34.3787772701       -2.3322307575  MEMB      126             0.0000000000
     17824       154  DOPC      H13R           23.3685114770       34.2960427489       -2.8262479297  MEMB      126             0.0000000000
     17825       154  DOPC      H13S           21.9926089314       33.3526488618       -2.1350411610  MEMB      126             0.0000000000
     17826       154  DOPC      C214           22.5248480191       35.1410523516       -1.0021310096  MEMB      126             0.0000000000
     17827       154  DOPC      H14R           22.9885033810       34.4908982531       -0.2286888262  MEMB      126             0.0000000000
     17828       154  DOPC      H14S           21.5077332178       35.4076556143       -0.6441663279  MEMB      126             0.0000000000
     17829       154  DOPC      C215           23.2966507756       36.4661785805       -1.0917078948  MEMB      126             0.0000000000
     17830       154  DOPC      H15R           23.2224412629       36.8894335097       -2.1166851077  MEMB      126             0.0000000000
     17831       154  DOPC      H15S           24.3747202763       36.2851870752       -0.9269715468  MEMB      126             0.0000000000
     17832       154  DOPC      C216           22.7383762753       37.5287756754       -0.1271609664  MEMB      126             0.0000000000
     17833       154  DOPC      H16R           21.6821404066       37.7318071245       -0.4078538908  MEMB      126             0.0000000000
     17834       154  DOPC      H16S           23.3101110830       38.4733087321       -0.2539061422  MEMB      126             0.0000000000
     17835       154  DOPC      C217           22.7067445235       37.1479973548        1.3551202432  MEMB      126             0.0000000000
     17836       154  DOPC      H17R           23.6047974136       36.5522358207        1.6013070971  MEMB      126             0.0000000000
     17837       154  DOPC      H17S           21.8271462472       36.4985315926        1.5384662542  MEMB      126             0.0000000000
     17838       154  DOPC      C218           22.6316635008       38.3760070846        2.2638993112  MEMB      126             0.0000000000
     17839       154  DOPC      H18R           22.5283452232       38.0811218049        3.3302467398  MEMB      126             0.0000000000
     17840       154  DOPC      H18S           21.7616876667       39.0071662401        1.9806995376  MEMB      126             0.0000000000
     17841       154  DOPC      H18T           23.5565880731       38.9816654760        2.1463702477  MEMB      126             0.0000000000
     17842       154  DOPC      C33            19.8083137153       36.3017968130       -9.9295037025  MEMB      126             0.0000000000
     17843       154  DOPC      H3X            19.0627159257       37.0924522990       -9.7869344529  MEMB      126             0.0000000000
     17844       154  DOPC      H3Y            20.5488562446       36.3495213395       -9.0986528342  MEMB      126             0.0000000000
     17845       154  DOPC      C34            19.1157756330       34.9422417532       -9.8331686479  MEMB      126             0.0000000000
     17846       154  DOPC      H4X            19.7624369228       34.2698268154       -9.2287334031  MEMB      126             0.0000000000
     17847       154  DOPC      H4Y            18.9589117721       34.4775557437      -10.8284445511  MEMB      126             0.0000000000
     17848       154  DOPC      C35            17.7878721108       35.0501426980       -9.0774256403  MEMB      126             0.0000000000
     17849       154  DOPC      H5X            16.9687722682       35.2938665862       -9.7907203962  MEMB      126             0.0000000000
     17850       154  DOPC      H5Y            17.8450659968       35.8698302838       -8.3298260499  MEMB      126             0.0000000000
     17851       154  DOPC      C36            17.4700246295       33.8035495152       -8.2566889302  MEMB      126             0.0000000000
     17852       154  DOPC      H6X            17.4888386621       32.9222201190       -8.9335146500  MEMB      126             0.0000000000
     17853       154  DOPC      H6Y            18.2541921695       33.6625460306       -7.4782213873  MEMB      126             0.0000000000
     17854       154  DOPC      C37            16.0894404300       33.9158061307       -7.6079518718  MEMB      126             0.0000000000
     17855       154  DOPC      H7X            15.4775318305       34.5492056094       -8.2818486447  MEMB      126             0.0000000000
     17856       154  DOPC      H7Y            15.6421095408       32.8972632615       -7.5515770708  MEMB      126             0.0000000000
     17857       154  DOPC      C38            16.0922793169       34.5875921191       -6.2272746928  MEMB      126             0.0000000000
     17858       154  DOPC      H8X            16.0876105629       35.6915983231       -6.3692813483  MEMB      126             0.0000000000
     17859       154  DOPC      H8Y            17.0686032864       34.3323472183       -5.7685053615  MEMB      126             0.0000000000
     17860       154  DOPC      C39            14.9644572773       34.1763693831       -5.3136288236  MEMB      126             0.0000000000
     17861       154  DOPC      H9X            14.1039381510       34.8613666962       -5.2734154971  MEMB      126             0.0000000000
     17862       154  DOPC      C310           14.9574899693       33.0540996858       -4.5710337375  MEMB      126             0.0000000000
     17863       154  DOPC      H10X           14.1017698770       32.8361532260       -3.9113964376  MEMB      126             0.0000000000
     17864       154  DOPC      C311           16.0871839454       32.0573181298       -4.5629222786  MEMB      126             0.0000000000
     17865       154  DOPC      H11X           16.3918209670       31.8257108852       -5.6108571923  MEMB      126             0.0000000000
     17866       154  DOPC      H11Y           15.7658033224       31.0854215608       -4.1258229321  MEMB      126             0.0000000000
     17867       154  DOPC      C312           17.3396856168       32.5741608533       -3.8264579071  MEMB      126             0.0000000000
     17868       154  DOPC      H12X           17.4526876608       33.6771277144       -3.8928281253  MEMB      126             0.0000000000
     17869       154  DOPC      H12Y           18.2285503873       32.1204637335       -4.3226003723  MEMB      126             0.0000000000
     17870       154  DOPC      C313           17.3937711555       32.1995016327       -2.3478074137  MEMB      126             0.0000000000
     17871       154  DOPC      H13X           16.5246319819       32.6081815090       -1.8119899735  MEMB      126             0.0000000000
     17872       154  DOPC      H13Y           17.3081811578       31.0860610129       -2.3092634527  MEMB      126             0.0000000000
     17873       154  DOPC      C314           18.7405262826       32.5946424878       -1.7198257936  MEMB      126             0.0000000000
     17874       154  DOPC      H14X           18.9774189246       31.7867005939       -0.9897471352  MEMB      126             0.0000000000
     17875       154  DOPC      H14Y           19.5279730340       32.5390778181       -2.5051580391  MEMB      126             0.0000000000
     17876       154  DOPC      C315           18.9179430627       33.8869673655       -0.8780048652  MEMB      126             0.0000000000
     17877       154  DOPC      H15X           19.9866026327       34.1559789082       -0.9970671014  MEMB      126             0.0000000000
     17878       154  DOPC      H15Y           18.7712576413       33.6062903757        0.1856816153  MEMB      126             0.0000000000
     17879       154  DOPC      C316           18.1193195991       35.1859006297       -1.0905783422  MEMB      126             0.0000000000
     17880       154  DOPC      H16X           18.3007427322       35.5818634449       -2.0985745195  MEMB      126             0.0000000000
     17881       154  DOPC      H16Y           17.0383736069       34.9760285991       -0.9983524217  MEMB      126             0.0000000000
     17882       154  DOPC      C317           18.5307832360       36.2651753683       -0.0518916834  MEMB      126             0.0000000000
     17883       154  DOPC      H17X           18.4827024695       35.8023677172        0.9583342316  MEMB      126             0.0000000000
     17884       154  DOPC      H17Y           19.5976446408       36.5384273822       -0.2119409018  MEMB      126             0.0000000000
     17885       154  DOPC      C318           17.6913591570       37.5510843253       -0.0208955638  MEMB      126             0.0000000000
     17886       154  DOPC      H18X           17.5005386779       37.8616342453        1.0318578266  MEMB      126             0.0000000000
     17887       154  DOPC      H18Y           18.2185618586       38.3875693326       -0.5269192715  MEMB      126             0.0000000000
     17888       154  DOPC      H18Z           16.7110989394       37.3934315879       -0.5164874680  MEMB      126             0.0000000000
     17889       155  DOPC      N              27.6012127019      -28.9720772147      -19.0771530898  MEMB      127             0.0000000000
     17890       155  DOPC      C12            27.7600453060      -29.9161029617      -17.8803501619  MEMB      127             0.0000000000
     17891       155  DOPC      H12A           27.3956846694      -29.4582322267      -16.9738096294  MEMB      127             0.0000000000
     17892       155  DOPC      H12B           28.8463930127      -30.0324519761      -17.7147508619  MEMB      127             0.0000000000
     17893       155  DOPC      C13            28.9726809373      -28.7828973345      -19.6458732407  MEMB      127             0.0000000000
     17894       155  DOPC      H13A           29.6092305265      -28.3772392596      -18.8566872887  MEMB      127             0.0000000000
     17895       155  DOPC      H13B           29.4048431015      -29.7411854528      -19.9092656757  MEMB      127             0.0000000000
     17896       155  DOPC      H13C           28.9871968666      -28.0772632404      -20.4708482669  MEMB      127             0.0000000000
     17897       155  DOPC      C14            27.1251784682      -27.6003575633      -18.7104783486  MEMB      127             0.0000000000
     17898       155  DOPC      H14A           27.7035858563      -27.1709227659      -17.8941758871  MEMB      127             0.0000000000
     17899       155  DOPC      H14B           27.2897078262      -26.9121453221      -19.5420230861  MEMB      127             0.0000000000
     17900       155  DOPC      H14C           26.0817267563      -27.5993605945      -18.4377241384  MEMB      127             0.0000000000
     17901       155  DOPC      C15            26.7177555357      -29.5906802620      -20.1025167508  MEMB      127             0.0000000000
     17902       155  DOPC      H15A           27.0870657779      -30.6107491588      -20.2606256786  MEMB      127             0.0000000000
     17903       155  DOPC      H15B           26.7738184291      -29.0342989594      -21.0271093545  MEMB      127             0.0000000000
     17904       155  DOPC      H15C           25.7121078213      -29.6374123475      -19.7311534556  MEMB      127             0.0000000000
     17905       155  DOPC      C11            27.2364877764      -31.3805955606      -18.0347305266  MEMB      127             0.0000000000
     17906       155  DOPC      H11A           27.3168479905      -31.9328653940      -17.0666352018  MEMB      127             0.0000000000
     17907       155  DOPC      H11B           26.1533844483      -31.3741284010      -18.2741151656  MEMB      127             0.0000000000
     17908       155  DOPC      P              29.4263030895      -32.5778028288      -18.7190848040  MEMB      127             0.0000000000
     17909       155  DOPC      O13            30.1220564683      -31.4322208326      -18.0807830666  MEMB      127             0.0000000000
     17910       155  DOPC      O14            30.0458774101      -33.0376216322      -19.9906183124  MEMB      127             0.0000000000
     17911       155  DOPC      O12            27.9424947414      -32.0725261391      -19.0720432783  MEMB      127             0.0000000000
     17912       155  DOPC      O11            29.1355316214      -33.7571482842      -17.6663091090  MEMB      127             0.0000000000
     17913       155  DOPC      C1             30.0580011915      -34.6382562739      -17.0201111040  MEMB      127             0.0000000000
     17914       155  DOPC      HA             30.9987456065      -34.1119143668      -16.7782323338  MEMB      127             0.0000000000
     17915       155  DOPC      HB             30.3130432261      -35.4636363689      -17.7043803801  MEMB      127             0.0000000000
     17916       155  DOPC      C2             29.5244469135      -35.2902464787      -15.6813067943  MEMB      127             0.0000000000
     17917       155  DOPC      HS             28.7570095665      -36.0485130054      -15.9569645959  MEMB      127             0.0000000000
     17918       155  DOPC      O21            28.9151182978      -34.2267810339      -14.9084303931  MEMB      127             0.0000000000
     17919       155  DOPC      C21            28.2428636548      -34.4720021829      -13.7903982601  MEMB      127             0.0000000000
     17920       155  DOPC      O22            28.0423376519      -35.5572053890      -13.2915260604  MEMB      127             0.0000000000
     17921       155  DOPC      C22            27.7915610022      -33.1365363812      -13.1568248441  MEMB      127             0.0000000000
     17922       155  DOPC      H2R            26.8378994665      -32.8716777970      -13.6612178021  MEMB      127             0.0000000000
     17923       155  DOPC      H2S            28.5306868870      -32.3617856473      -13.4281096809  MEMB      127             0.0000000000
     17924       155  DOPC      C3             30.6723740115      -36.0350876960      -14.8689360345  MEMB      127             0.0000000000
     17925       155  DOPC      HX             30.8235439332      -37.0619584937      -15.2509024526  MEMB      127             0.0000000000
     17926       155  DOPC      HY             30.2955205821      -36.1673830866      -13.8293868974  MEMB      127             0.0000000000
     17927       155  DOPC      O31            31.9472213133      -35.3358372778      -14.8949372314  MEMB      127             0.0000000000
     17928       155  DOPC      C31            32.7601347218      -35.5498558220      -13.8453533778  MEMB      127             0.0000000000
     17929       155  DOPC      O32            32.5340871770      -36.4318301728      -13.0298008730  MEMB      127             0.0000000000
     17930       155  DOPC      C32            34.1124633650      -34.6271486592      -13.7961169216  MEMB      127             0.0000000000
     17931       155  DOPC      H2X            34.7193719870      -35.1794462129      -13.0552469058  MEMB      127             0.0000000000
     17932       155  DOPC      H2Y            34.5742713498      -34.8686847447      -14.7717636507  MEMB      127             0.0000000000
     17933       155  DOPC      C23            27.5242777474      -33.1372656630      -11.6088985719  MEMB      127             0.0000000000
     17934       155  DOPC      H3R            26.6983420715      -33.8500667835      -11.3879995131  MEMB      127             0.0000000000
     17935       155  DOPC      H3S            27.1649988661      -32.1144762174      -11.3428351806  MEMB      127             0.0000000000
     17936       155  DOPC      C24            28.7244509803      -33.4518314133      -10.6774390910  MEMB      127             0.0000000000
     17937       155  DOPC      H4R            29.4750052033      -32.6325071931      -10.7456218758  MEMB      127             0.0000000000
     17938       155  DOPC      H4S            29.1781929084      -34.3977298137      -11.0420642486  MEMB      127             0.0000000000
     17939       155  DOPC      C25            28.3540279961      -33.6539672380       -9.1854243058  MEMB      127             0.0000000000
     17940       155  DOPC      H5R            27.4251437087      -34.2698926114       -9.1723327734  MEMB      127             0.0000000000
     17941       155  DOPC      H5S            28.1252177036      -32.6744744303       -8.7147317904  MEMB      127             0.0000000000
     17942       155  DOPC      C26            29.3631832279      -34.4269157617       -8.2973015825  MEMB      127             0.0000000000
     17943       155  DOPC      H6R            29.5874917765      -35.3954395287       -8.7845222094  MEMB      127             0.0000000000
     17944       155  DOPC      H6S            28.8783048271      -34.6626207229       -7.3243826016  MEMB      127             0.0000000000
     17945       155  DOPC      C27            30.7115832108      -33.7632613941       -7.9737608971  MEMB      127             0.0000000000
     17946       155  DOPC      H7R            31.2273140697      -33.6452245595       -8.9431299652  MEMB      127             0.0000000000
     17947       155  DOPC      H7S            31.3045593542      -34.4273916398       -7.3007288917  MEMB      127             0.0000000000
     17948       155  DOPC      C28            30.6937730752      -32.3884187142       -7.3480388017  MEMB      127             0.0000000000
     17949       155  DOPC      H8R            30.2211041036      -31.7721818051       -8.1297598136  MEMB      127             0.0000000000
     17950       155  DOPC      H8S            31.7230979869      -31.9867457426       -7.1945840547  MEMB      127             0.0000000000
     17951       155  DOPC      C29            29.9117816914      -32.4396955285       -6.0719237327  MEMB      127             0.0000000000
     17952       155  DOPC      H9R            28.8557892425      -32.1374084556       -6.1594241563  MEMB      127             0.0000000000
     17953       155  DOPC      C210           30.3973583164      -32.7750845625       -4.8701089397  MEMB      127             0.0000000000
     17954       155  DOPC      H10R           29.6821266186      -32.7452659306       -4.0362071325  MEMB      127             0.0000000000
     17955       155  DOPC      C211           31.8224196563      -33.1711263498       -4.5267031471  MEMB      127             0.0000000000
     17956       155  DOPC      H11R           32.3608293746      -32.2402725334       -4.2356565277  MEMB      127             0.0000000000
     17957       155  DOPC      H11S           32.3716824167      -33.5758330454       -5.4074742858  MEMB      127             0.0000000000
     17958       155  DOPC      C212           31.9908978806      -34.1624707248       -3.3418093207  MEMB      127             0.0000000000
     17959       155  DOPC      H12R           32.9763690047      -33.9607243083       -2.8639051899  MEMB      127             0.0000000000
     17960       155  DOPC      H12S           31.9975085093      -35.2110675306       -3.6981945629  MEMB      127             0.0000000000
     17961       155  DOPC      C213           30.8743721671      -34.0346536654       -2.2994043493  MEMB      127             0.0000000000
     17962       155  DOPC      H13R           29.9505571674      -34.4975137690       -2.7122549270  MEMB      127             0.0000000000
     17963       155  DOPC      H13S           30.6833215095      -32.9542574391       -2.2048355246  MEMB      127             0.0000000000
     17964       155  DOPC      C214           31.1523645227      -34.5573167167       -0.8857530512  MEMB      127             0.0000000000
     17965       155  DOPC      H14R           30.8677611007      -33.7789984865       -0.1410971096  MEMB      127             0.0000000000
     17966       155  DOPC      H14S           32.2331148094      -34.7755359601       -0.7505669190  MEMB      127             0.0000000000
     17967       155  DOPC      C215           30.3190207956      -35.7985430926       -0.5918848728  MEMB      127             0.0000000000
     17968       155  DOPC      H15R           30.6921271730      -36.2942810785        0.3325566355  MEMB      127             0.0000000000
     17969       155  DOPC      H15S           30.4565320670      -36.4462501155       -1.4717090180  MEMB      127             0.0000000000
     17970       155  DOPC      C216           28.8290648520      -35.4979757004       -0.4286568606  MEMB      127             0.0000000000
     17971       155  DOPC      H16R           28.3986767404      -35.0614115745       -1.3558785134  MEMB      127             0.0000000000
     17972       155  DOPC      H16S           28.8323933996      -34.6975460746        0.3403685505  MEMB      127             0.0000000000
     17973       155  DOPC      C217           27.9475987534      -36.6974171520       -0.0127466042  MEMB      127             0.0000000000
     17974       155  DOPC      H17R           28.0709614951      -37.5235632148       -0.7457487580  MEMB      127             0.0000000000
     17975       155  DOPC      H17S           26.8742084175      -36.3996291131       -0.0734130125  MEMB      127             0.0000000000
     17976       155  DOPC      C218           28.2147756037      -37.2091956645        1.4070647483  MEMB      127             0.0000000000
     17977       155  DOPC      H18R           27.4620176609      -37.9684077583        1.7111330422  MEMB      127             0.0000000000
     17978       155  DOPC      H18S           28.1806783109      -36.3834672274        2.1481126528  MEMB      127             0.0000000000
     17979       155  DOPC      H18T           29.2231215550      -37.6644912377        1.4606087095  MEMB      127             0.0000000000
     17980       155  DOPC      C33            34.5149730636      -33.0043732014      -13.5613386707  MEMB      127             0.0000000000
     17981       155  DOPC      H3X            34.5842604662      -32.4882281112      -14.5094866123  MEMB      127             0.0000000000
     17982       155  DOPC      H3Y            35.5692988744      -33.1753182257      -13.2360954814  MEMB      127             0.0000000000
     17983       155  DOPC      C34            34.1219032750      -31.7784429784      -12.5851036455  MEMB      127             0.0000000000
     17984       155  DOPC      H4X            35.1167156338      -31.2666656077      -12.5537123538  MEMB      127             0.0000000000
     17985       155  DOPC      H4Y            33.9786029535      -31.9795108344      -11.5198227681  MEMB      127             0.0000000000
     17986       155  DOPC      C35            33.2316171713      -30.5346529283      -12.9861756729  MEMB      127             0.0000000000
     17987       155  DOPC      H5X            32.9811751787      -30.5181048521      -14.0615321222  MEMB      127             0.0000000000
     17988       155  DOPC      H5Y            33.8874509407      -29.6432146769      -12.9073386982  MEMB      127             0.0000000000
     17989       155  DOPC      C36            32.0164900058      -30.1543160895      -12.0586527326  MEMB      127             0.0000000000
     17990       155  DOPC      H6X            31.5262875524      -31.0246538477      -11.6299954076  MEMB      127             0.0000000000
     17991       155  DOPC      H6Y            32.4074028710      -29.5847431844      -11.1935525891  MEMB      127             0.0000000000
     17992       155  DOPC      C37            30.8737124521      -29.3403324135      -12.7307203080  MEMB      127             0.0000000000
     17993       155  DOPC      H7X            31.3654234641      -28.5462150644      -13.3154703849  MEMB      127             0.0000000000
     17994       155  DOPC      H7Y            30.3520277034      -29.9986273984      -13.4486688890  MEMB      127             0.0000000000
     17995       155  DOPC      C38            29.7202671140      -28.7090857361      -11.8819806770  MEMB      127             0.0000000000
     17996       155  DOPC      H8X            29.0593992002      -29.5044407075      -11.4767826397  MEMB      127             0.0000000000
     17997       155  DOPC      H8Y            29.0840439530      -28.1586536063      -12.6130223884  MEMB      127             0.0000000000
     17998       155  DOPC      C39            30.1024906276      -27.7254669342      -10.8044860477  MEMB      127             0.0000000000
     17999       155  DOPC      H9X            30.0439307857      -26.6614570530      -11.0810784382  MEMB      127             0.0000000000
     18000       155  DOPC      C310           30.4120864851      -28.0308821238       -9.5409114086  MEMB      127             0.0000000000
     18001       155  DOPC      H10X           30.6947787867      -27.2377792987       -8.8280287105  MEMB      127             0.0000000000
     18002       155  DOPC      C311           30.4118023554      -29.4248829536       -8.9977352468  MEMB      127             0.0000000000
     18003       155  DOPC      H11X           31.4155521592      -29.7374478545       -8.6344418709  MEMB      127             0.0000000000
     18004       155  DOPC      H11Y           30.1125932424      -30.1800042514       -9.7594427265  MEMB      127             0.0000000000
     18005       155  DOPC      C312           29.3751155338      -29.4153150703       -7.8684272798  MEMB      127             0.0000000000
     18006       155  DOPC      H12X           28.8993663867      -30.4117846775       -7.7694698902  MEMB      127             0.0000000000
     18007       155  DOPC      H12Y           28.5163885413      -28.7433164013       -8.0848833599  MEMB      127             0.0000000000
     18008       155  DOPC      C313           29.9883637338      -29.0578760771       -6.5149019328  MEMB      127             0.0000000000
     18009       155  DOPC      H13X           30.7703191428      -29.8072033736       -6.2563299987  MEMB      127             0.0000000000
     18010       155  DOPC      H13Y           30.4873099358      -28.0656156942       -6.5590594491  MEMB      127             0.0000000000
     18011       155  DOPC      C314           28.8949273791      -29.0713130927       -5.4487704930  MEMB      127             0.0000000000
     18012       155  DOPC      H14X           28.1322365495      -28.3030268248       -5.7072383859  MEMB      127             0.0000000000
     18013       155  DOPC      H14Y           28.3927635663      -30.0637813493       -5.4671650532  MEMB      127             0.0000000000
     18014       155  DOPC      C315           29.4271529375      -28.8004136561       -4.0473245069  MEMB      127             0.0000000000
     18015       155  DOPC      H15X           29.8205864579      -27.7578673639       -4.0331166455  MEMB      127             0.0000000000
     18016       155  DOPC      H15Y           30.2842563354      -29.4738485317       -3.8294900416  MEMB      127             0.0000000000
     18017       155  DOPC      C316           28.3429717049      -28.9451589809       -2.9679882307  MEMB      127             0.0000000000
     18018       155  DOPC      H16X           28.7717944044      -28.5085304184       -2.0547107773  MEMB      127             0.0000000000
     18019       155  DOPC      H16Y           27.4526863652      -28.3322796735       -3.2197883502  MEMB      127             0.0000000000
     18020       155  DOPC      C317           27.9633861047      -30.3831692694       -2.5828812689  MEMB      127             0.0000000000
     18021       155  DOPC      H17X           27.0410606633      -30.3685057988       -1.9554538281  MEMB      127             0.0000000000
     18022       155  DOPC      H17Y           27.7394341512      -30.9802337986       -3.4956078354  MEMB      127             0.0000000000
     18023       155  DOPC      C318           29.0785835350      -31.0322569652       -1.7628297843  MEMB      127             0.0000000000
     18024       155  DOPC      H18X           30.0186576264      -31.0200940973       -2.3549066446  MEMB      127             0.0000000000
     18025       155  DOPC      H18Y           29.2595774050      -30.4603736788       -0.8276917246  MEMB      127             0.0000000000
     18026       155  DOPC      H18Z           28.8456498456      -32.0828156919       -1.4850505127  MEMB      127             0.0000000000
     18027       156  DOPC      N             -35.1296374390      -23.3893222942      -17.4712615216  MEMB      128             0.0000000000
     18028       156  DOPC      C12           -35.8022238472      -24.4212070023      -18.3407403830  MEMB      128             0.0000000000
     18029       156  DOPC      H12A          -36.8760571373      -24.3715455320      -18.2097653378  MEMB      128             0.0000000000
     18030       156  DOPC      H12B          -35.5105121618      -25.4298262102      -18.0379899450  MEMB      128             0.0000000000
     18031       156  DOPC      C13           -35.6797907012      -22.0637991349      -17.8396812540  MEMB      128             0.0000000000
     18032       156  DOPC      H13A          -35.0584219259      -21.2418106431      -17.4806167075  MEMB      128             0.0000000000
     18033       156  DOPC      H13B          -35.7533812958      -21.9813822452      -18.9170577124  MEMB      128             0.0000000000
     18034       156  DOPC      H13C          -36.6466953791      -21.8618188275      -17.3869532093  MEMB      128             0.0000000000
     18035       156  DOPC      C14           -33.6480760645      -23.4068060551      -17.7482607679  MEMB      128             0.0000000000
     18036       156  DOPC      H14A          -33.1698516801      -24.2895368994      -17.3277452106  MEMB      128             0.0000000000
     18037       156  DOPC      H14B          -33.4737236270      -23.5239963971      -18.8258686319  MEMB      128             0.0000000000
     18038       156  DOPC      H14C          -33.1117682071      -22.5348068378      -17.4033063738  MEMB      128             0.0000000000
     18039       156  DOPC      C15           -35.3568529826      -23.6894883415      -16.0303986455  MEMB      128             0.0000000000
     18040       156  DOPC      H15A          -36.3674034473      -24.0089523574      -15.8111488412  MEMB      128             0.0000000000
     18041       156  DOPC      H15B          -35.1147940889      -22.8281039575      -15.4249128566  MEMB      128             0.0000000000
     18042       156  DOPC      H15C          -34.6851613680      -24.4881926195      -15.7203094916  MEMB      128             0.0000000000
     18043       156  DOPC      C11           -35.4419340563      -24.2985428183      -19.8334086305  MEMB      128             0.0000000000
     18044       156  DOPC      H11A          -36.2175673542      -24.7817217456      -20.4436273325  MEMB      128             0.0000000000
     18045       156  DOPC      H11B          -35.4458628332      -23.2456193079      -20.1819278127  MEMB      128             0.0000000000
     18046       156  DOPC      P             -33.9553794707      -26.4358198847      -20.1031041186  MEMB      128             0.0000000000
     18047       156  DOPC      O13           -32.7660794500      -26.8888154032      -19.3806878424  MEMB      128             0.0000000000
     18048       156  DOPC      O14           -34.0718176079      -26.8723132771      -21.5114654618  MEMB      128             0.0000000000
     18049       156  DOPC      O12           -34.1590175509      -24.8657687832      -20.0682404607  MEMB      128             0.0000000000
     18050       156  DOPC      O11           -35.2527598674      -26.9637916979      -19.3828196506  MEMB      128             0.0000000000
     18051       156  DOPC      C1            -36.4880682040      -27.3621739827      -19.9940226788  MEMB      128             0.0000000000
     18052       156  DOPC      HA            -36.3489049726      -28.0691090850      -20.8384636842  MEMB      128             0.0000000000
     18053       156  DOPC      HB            -37.0476847622      -26.4889373792      -20.3845232606  MEMB      128             0.0000000000
     18054       156  DOPC      C2            -37.4685646333      -27.9489144777      -18.9591692829  MEMB      128             0.0000000000
     18055       156  DOPC      HS            -38.4239287981      -28.1816440313      -19.4818710006  MEMB      128             0.0000000000
     18056       156  DOPC      O21           -37.6589215572      -26.9036920033      -17.9960136377  MEMB      128             0.0000000000
     18057       156  DOPC      C21           -38.6783296567      -27.0397085965      -17.1772011764  MEMB      128             0.0000000000
     18058       156  DOPC      O22           -39.5810738626      -27.8480928560      -17.2790961658  MEMB      128             0.0000000000
     18059       156  DOPC      C22           -38.5608355971      -25.8815015601      -16.1906791787  MEMB      128             0.0000000000
     18060       156  DOPC      H2R           -38.8501916944      -24.9377207650      -16.6936602778  MEMB      128             0.0000000000
     18061       156  DOPC      H2S           -37.4848490972      -25.8157735367      -15.9204818484  MEMB      128             0.0000000000
     18062       156  DOPC      C3            -36.9135719840      -29.2631003149      -18.3329296776  MEMB      128             0.0000000000
     18063       156  DOPC      HX            -36.8972973292      -30.0180751125      -19.1433390230  MEMB      128             0.0000000000
     18064       156  DOPC      HY            -37.6258612449      -29.6661292110      -17.5744627664  MEMB      128             0.0000000000
     18065       156  DOPC      O31           -35.5571859746      -29.0932406577      -17.8487777730  MEMB      128             0.0000000000
     18066       156  DOPC      C31           -35.5085112157      -28.6314221584      -16.5966060138  MEMB      128             0.0000000000
     18067       156  DOPC      O32           -36.4559799458      -28.5808147574      -15.8385126607  MEMB      128             0.0000000000
     18068       156  DOPC      C32           -34.1147964253      -28.1181638793      -16.2117594194  MEMB      128             0.0000000000
     18069       156  DOPC      H2X           -33.5284438496      -28.9765834061      -15.8608111610  MEMB      128             0.0000000000
     18070       156  DOPC      H2Y           -33.5986733117      -27.7010679340      -17.0982824996  MEMB      128             0.0000000000
     18071       156  DOPC      C23           -39.4098467938      -26.1002749333      -14.9339174587  MEMB      128             0.0000000000
     18072       156  DOPC      H3R           -39.5599885259      -27.1931708171      -14.7596090073  MEMB      128             0.0000000000
     18073       156  DOPC      H3S           -40.4222906735      -25.6559912252      -15.0613283601  MEMB      128             0.0000000000
     18074       156  DOPC      C24           -38.7235937133      -25.5478545594      -13.6837738456  MEMB      128             0.0000000000
     18075       156  DOPC      H4R           -39.3793531656      -25.8232566169      -12.8288467994  MEMB      128             0.0000000000
     18076       156  DOPC      H4S           -38.6713083920      -24.4400261697      -13.7126554540  MEMB      128             0.0000000000
     18077       156  DOPC      C25           -37.3159994647      -26.1301784792      -13.4398057569  MEMB      128             0.0000000000
     18078       156  DOPC      H5R           -36.5372736217      -25.4827052262      -13.8857656047  MEMB      128             0.0000000000
     18079       156  DOPC      H5S           -37.2450437811      -27.1305117135      -13.9268254013  MEMB      128             0.0000000000
     18080       156  DOPC      C26           -37.0731014155      -26.3186032463      -11.9485431937  MEMB      128             0.0000000000
     18081       156  DOPC      H6R           -37.8744664644      -26.9815334308      -11.5850094376  MEMB      128             0.0000000000
     18082       156  DOPC      H6S           -37.1657369476      -25.3473884421      -11.4190446890  MEMB      128             0.0000000000
     18083       156  DOPC      C27           -35.7882737131      -27.0275168560      -11.5331168469  MEMB      128             0.0000000000
     18084       156  DOPC      H7R           -34.9403030990      -26.3600614224      -11.7430345637  MEMB      128             0.0000000000
     18085       156  DOPC      H7S           -35.6380427985      -27.9492207579      -12.1240355900  MEMB      128             0.0000000000
     18086       156  DOPC      C28           -35.8746580300      -27.3849966667      -10.0404643533  MEMB      128             0.0000000000
     18087       156  DOPC      H8R           -36.7823742357      -28.0130588440       -9.9014709263  MEMB      128             0.0000000000
     18088       156  DOPC      H8S           -36.0514396528      -26.4408671106       -9.4769562364  MEMB      128             0.0000000000
     18089       156  DOPC      C29           -34.6510873119      -28.0786883332       -9.5117854437  MEMB      128             0.0000000000
     18090       156  DOPC      H9R           -33.7309097320      -27.9486565165      -10.1022903785  MEMB      128             0.0000000000
     18091       156  DOPC      C210          -34.6237619882      -28.7953930259       -8.3793503051  MEMB      128             0.0000000000
     18092       156  DOPC      H10R          -33.6733989141      -29.2370056177       -8.0453691238  MEMB      128             0.0000000000
     18093       156  DOPC      C211          -35.7985686638      -29.0214658356       -7.4630391297  MEMB      128             0.0000000000
     18094       156  DOPC      H11R          -35.8086724825      -30.0790718781       -7.1393178596  MEMB      128             0.0000000000
     18095       156  DOPC      H11S          -36.7767456586      -28.8710807422       -7.9709388849  MEMB      128             0.0000000000
     18096       156  DOPC      C212          -35.7615338222      -28.0891066318       -6.2410968970  MEMB      128             0.0000000000
     18097       156  DOPC      H12R          -36.1759736250      -27.1007211483       -6.5460908972  MEMB      128             0.0000000000
     18098       156  DOPC      H12S          -34.7173823971      -27.9184556079       -5.8931329034  MEMB      128             0.0000000000
     18099       156  DOPC      C213          -36.5786809591      -28.6319462244       -5.0621700727  MEMB      128             0.0000000000
     18100       156  DOPC      H13R          -36.0021647616      -29.4232289689       -4.5354346899  MEMB      128             0.0000000000
     18101       156  DOPC      H13S          -37.5064328035      -29.1041504432       -5.4508877285  MEMB      128             0.0000000000
     18102       156  DOPC      C214          -36.9702431436      -27.5483263188       -4.0526826335  MEMB      128             0.0000000000
     18103       156  DOPC      H14R          -37.6022758373      -28.0427326705       -3.2767316825  MEMB      128             0.0000000000
     18104       156  DOPC      H14S          -37.6142235564      -26.7877405263       -4.5454472769  MEMB      128             0.0000000000
     18105       156  DOPC      C215          -35.7728489190      -26.8576674148       -3.3652195476  MEMB      128             0.0000000000
     18106       156  DOPC      H15R          -35.7370378722      -25.7935214933       -3.6896210611  MEMB      128             0.0000000000
     18107       156  DOPC      H15S          -34.8202822379      -27.3369537590       -3.6663804904  MEMB      128             0.0000000000
     18108       156  DOPC      C216          -35.9747314403      -26.9114434817       -1.8458062757  MEMB      128             0.0000000000
     18109       156  DOPC      H16R          -36.1858959255      -27.9679469941       -1.5676699088  MEMB      128             0.0000000000
     18110       156  DOPC      H16S          -36.8774879312      -26.2833031348       -1.7062561135  MEMB      128             0.0000000000
     18111       156  DOPC      C217          -34.9322641316      -26.3634249079       -0.8611903111  MEMB      128             0.0000000000
     18112       156  DOPC      H17R          -34.2483363394      -27.1481308611       -0.5111364427  MEMB      128             0.0000000000
     18113       156  DOPC      H17S          -35.4470620011      -26.0516736873        0.0692564261  MEMB      128             0.0000000000
     18114       156  DOPC      C218          -34.1915168998      -25.1497169409       -1.3514002191  MEMB      128             0.0000000000
     18115       156  DOPC      H18R          -34.9229065441      -24.3199938684       -1.4005132872  MEMB      128             0.0000000000
     18116       156  DOPC      H18S          -33.7827399382      -25.3075726976       -2.3663597142  MEMB      128             0.0000000000
     18117       156  DOPC      H18T          -33.3543955854      -24.8779312900       -0.6706786960  MEMB      128             0.0000000000
     18118       156  DOPC      C33           -34.2137001877      -27.0675507160      -15.0666686168  MEMB      128             0.0000000000
     18119       156  DOPC      H3X           -34.5569178573      -27.5681808762      -14.1351322481  MEMB      128             0.0000000000
     18120       156  DOPC      H3Y           -35.0013204753      -26.3393226919      -15.3510251746  MEMB      128             0.0000000000
     18121       156  DOPC      C34           -32.9133780274      -26.2881278707      -14.7620971247  MEMB      128             0.0000000000
     18122       156  DOPC      H4X           -32.4832084674      -25.9535658213      -15.7347688460  MEMB      128             0.0000000000
     18123       156  DOPC      H4Y           -32.1713806451      -26.9728512055      -14.3000529553  MEMB      128             0.0000000000
     18124       156  DOPC      C35           -33.1024793068      -25.0507392497      -13.8589040439  MEMB      128             0.0000000000
     18125       156  DOPC      H5X           -34.1778113744      -24.7733059308      -13.8578196642  MEMB      128             0.0000000000
     18126       156  DOPC      H5Y           -32.5239480240      -24.1945088694      -14.2767987090  MEMB      128             0.0000000000
     18127       156  DOPC      C36           -32.6728001677      -25.2376231922      -12.3952505703  MEMB      128             0.0000000000
     18128       156  DOPC      H6X           -32.9422228966      -26.2645169299      -12.0662695584  MEMB      128             0.0000000000
     18129       156  DOPC      H6Y           -31.5701743394      -25.1662234423      -12.2970846748  MEMB      128             0.0000000000
     18130       156  DOPC      C37           -33.3498546670      -24.2158459533      -11.4584841764  MEMB      128             0.0000000000
     18131       156  DOPC      H7X           -32.8636935192      -23.2244117982      -11.5833132389  MEMB      128             0.0000000000
     18132       156  DOPC      H7Y           -34.4225732797      -24.1018179457      -11.7383114875  MEMB      128             0.0000000000
     18133       156  DOPC      C38           -33.3060573007      -24.6672402662       -9.9874716056  MEMB      128             0.0000000000
     18134       156  DOPC      H8X           -32.3365295986      -25.1824929733       -9.8233521784  MEMB      128             0.0000000000
     18135       156  DOPC      H8Y           -34.0790586730      -25.4428049479       -9.8354300470  MEMB      128             0.0000000000
     18136       156  DOPC      C39           -33.5482681670      -23.5658298163       -8.9899977513  MEMB      128             0.0000000000
     18137       156  DOPC      H9X           -34.5409769756      -23.0914510858       -9.0298745531  MEMB      128             0.0000000000
     18138       156  DOPC      C310          -32.6593299443      -23.1420746191       -8.0803066619  MEMB      128             0.0000000000
     18139       156  DOPC      H10X          -32.9376418889      -22.3239104176       -7.3958386137  MEMB      128             0.0000000000
     18140       156  DOPC      C311          -31.2634030129      -23.6755317557       -7.8862646800  MEMB      128             0.0000000000
     18141       156  DOPC      H11X          -30.5325796182      -22.8474832299       -7.7550043065  MEMB      128             0.0000000000
     18142       156  DOPC      H11Y          -30.9024128208      -24.2609398567       -8.7599325952  MEMB      128             0.0000000000
     18143       156  DOPC      C312          -31.1864453100      -24.5653973722       -6.6477825828  MEMB      128             0.0000000000
     18144       156  DOPC      H12X          -30.1762230772      -25.0270785111       -6.6592302795  MEMB      128             0.0000000000
     18145       156  DOPC      H12Y          -31.9495569029      -25.3760876381       -6.7062223669  MEMB      128             0.0000000000
     18146       156  DOPC      C313          -31.3198042877      -23.7786048865       -5.3397200552  MEMB      128             0.0000000000
     18147       156  DOPC      H13X          -30.6868559146      -22.8650353283       -5.4006189589  MEMB      128             0.0000000000
     18148       156  DOPC      H13Y          -32.3760513189      -23.4496055650       -5.2271157931  MEMB      128             0.0000000000
     18149       156  DOPC      C314          -30.9026788983      -24.5943224254       -4.1103396419  MEMB      128             0.0000000000
     18150       156  DOPC      H14X          -29.8143169332      -24.8167997344       -4.1704306343  MEMB      128             0.0000000000
     18151       156  DOPC      H14Y          -31.0675097326      -23.9857701272       -3.1934393556  MEMB      128             0.0000000000
     18152       156  DOPC      C315          -31.6828813520      -25.9091095794       -4.0082899027  MEMB      128             0.0000000000
     18153       156  DOPC      H15X          -31.3959651208      -26.5569602094       -4.8632342013  MEMB      128             0.0000000000
     18154       156  DOPC      H15Y          -32.7695125088      -25.7061219716       -4.1162290826  MEMB      128             0.0000000000
     18155       156  DOPC      C316          -31.4152236398      -26.6982412608       -2.7224393351  MEMB      128             0.0000000000
     18156       156  DOPC      H16X          -30.3192165958      -26.6887733887       -2.5259181699  MEMB      128             0.0000000000
     18157       156  DOPC      H16Y          -31.8828066207      -26.2152246937       -1.8439745449  MEMB      128             0.0000000000
     18158       156  DOPC      C317          -31.8743194061      -28.1557950909       -2.8656685918  MEMB      128             0.0000000000
     18159       156  DOPC      H17X          -32.2132657811      -28.3747924500       -3.9021411940  MEMB      128             0.0000000000
     18160       156  DOPC      H17Y          -31.0022297002      -28.7957907134       -2.6469217729  MEMB      128             0.0000000000
     18161       156  DOPC      C318          -32.8680287341      -28.6893434132       -1.8695152112  MEMB      128             0.0000000000
     18162       156  DOPC      H18X          -32.6861910969      -28.2393901709       -0.8792814390  MEMB      128             0.0000000000
     18163       156  DOPC      H18Y          -33.9185518140      -28.5492047369       -2.1803120300  MEMB      128             0.0000000000
     18164       156  DOPC      H18Z          -32.6839248622      -29.7700869535       -1.7782839971  MEMB      128             0.0000000000
     18165       157  DOPC      N              27.9990765687       28.9486311335      -20.3125898524  MEMB      129             0.0000000000
     18166       157  DOPC      C12            28.8355532275       30.1543463371      -20.7286327205  MEMB      129             0.0000000000
     18167       157  DOPC      H12A           28.3323942828       30.6810136741      -21.5236351237  MEMB      129             0.0000000000
     18168       157  DOPC      H12B           29.7739017034       29.7844147495      -21.1588219882  MEMB      129             0.0000000000
     18169       157  DOPC      C13            26.8384205424       29.2944837012      -19.4226875111  MEMB      129             0.0000000000
     18170       157  DOPC      H13A           26.3643129728       28.4039549861      -19.0156519879  MEMB      129             0.0000000000
     18171       157  DOPC      H13B           27.2012412553       29.9052078333      -18.5982045689  MEMB      129             0.0000000000
     18172       157  DOPC      H13C           26.0938625265       29.8599977254      -19.9620517308  MEMB      129             0.0000000000
     18173       157  DOPC      C14            28.8992785775       28.0118208044      -19.5563436287  MEMB      129             0.0000000000
     18174       157  DOPC      H14A           28.3832934168       27.1407262128      -19.1789916334  MEMB      129             0.0000000000
     18175       157  DOPC      H14B           29.7419007378       27.7017650039      -20.1647274131  MEMB      129             0.0000000000
     18176       157  DOPC      H14C           29.3558796699       28.5374085888      -18.7132442293  MEMB      129             0.0000000000
     18177       157  DOPC      C15            27.5094912890       28.3056208209      -21.5809724501  MEMB      129             0.0000000000
     18178       157  DOPC      H15A           26.7465208406       28.9022007296      -22.0743625207  MEMB      129             0.0000000000
     18179       157  DOPC      H15B           27.1221768499       27.3069344532      -21.4077937666  MEMB      129             0.0000000000
     18180       157  DOPC      H15C           28.3352692311       28.1873400365      -22.2827436268  MEMB      129             0.0000000000
     18181       157  DOPC      C11            29.2857507660       31.1520828363      -19.6501801103  MEMB      129             0.0000000000
     18182       157  DOPC      H11A           29.6145374706       32.0796747699      -20.1849840363  MEMB      129             0.0000000000
     18183       157  DOPC      H11B           28.4377006195       31.4233900244      -18.9821283511  MEMB      129             0.0000000000
     18184       157  DOPC      P              31.0538442551       31.5493427179      -17.8341127053  MEMB      129             0.0000000000
     18185       157  DOPC      O13            31.3741785908       32.8403122138      -18.4841552859  MEMB      129             0.0000000000
     18186       157  DOPC      O14            32.1587211300       30.8511092475      -17.1445759343  MEMB      129             0.0000000000
     18187       157  DOPC      O12            30.3787968800       30.5892296331      -18.9163205300  MEMB      129             0.0000000000
     18188       157  DOPC      O11            29.8189046236       31.7129168016      -16.8523136918  MEMB      129             0.0000000000
     18189       157  DOPC      C1             29.2430976771       30.5751167320      -16.1984295638  MEMB      129             0.0000000000
     18190       157  DOPC      HA             29.8388177753       30.2952169706      -15.3010424810  MEMB      129             0.0000000000
     18191       157  DOPC      HB             29.1923186549       29.6896938265      -16.8758689358  MEMB      129             0.0000000000
     18192       157  DOPC      C2             27.8003975222       30.9241012315      -15.7614831763  MEMB      129             0.0000000000
     18193       157  DOPC      HS             27.4225871366       31.6252058692      -16.5475855272  MEMB      129             0.0000000000
     18194       157  DOPC      O21            27.8234345063       31.5504543545      -14.4636427902  MEMB      129             0.0000000000
     18195       157  DOPC      C21            26.7017653294       32.2186335808      -14.2209692048  MEMB      129             0.0000000000
     18196       157  DOPC      O22            25.8769912003       32.5251810059      -15.0718883027  MEMB      129             0.0000000000
     18197       157  DOPC      C22            26.4973339038       32.3316470854      -12.7215752527  MEMB      129             0.0000000000
     18198       157  DOPC      H2R            26.0351428369       33.3169067971      -12.5060254459  MEMB      129             0.0000000000
     18199       157  DOPC      H2S            27.4781454555       32.2897024961      -12.2043867018  MEMB      129             0.0000000000
     18200       157  DOPC      C3             26.8375673166       29.6894477281      -15.7229556678  MEMB      129             0.0000000000
     18201       157  DOPC      HX             26.7757228327       29.2681330491      -16.7464681558  MEMB      129             0.0000000000
     18202       157  DOPC      HY             25.8136598979       30.0437179550      -15.4760161907  MEMB      129             0.0000000000
     18203       157  DOPC      O31            27.2194754938       28.7150771121      -14.7310926824  MEMB      129             0.0000000000
     18204       157  DOPC      C31            27.7973823338       27.6105683655      -15.1782569391  MEMB      129             0.0000000000
     18205       157  DOPC      O32            27.8956714407       27.2721784679      -16.3442597587  MEMB      129             0.0000000000
     18206       157  DOPC      C32            28.2428391267       26.7746895019      -13.9915760300  MEMB      129             0.0000000000
     18207       157  DOPC      H2X            27.9067621002       27.2413989760      -13.0432280801  MEMB      129             0.0000000000
     18208       157  DOPC      H2Y            27.7501572400       25.7867763763      -14.1072188474  MEMB      129             0.0000000000
     18209       157  DOPC      C23            25.5690221622       31.2007036640      -12.2784226751  MEMB      129             0.0000000000
     18210       157  DOPC      H3R            26.0208792359       30.2142856139      -12.5296750784  MEMB      129             0.0000000000
     18211       157  DOPC      H3S            24.6043887966       31.2902760788      -12.8311948946  MEMB      129             0.0000000000
     18212       157  DOPC      C24            25.2681667576       31.2571059445      -10.7866120679  MEMB      129             0.0000000000
     18213       157  DOPC      H4R            24.2966397411       30.7406056989      -10.6178881238  MEMB      129             0.0000000000
     18214       157  DOPC      H4S            25.1588429809       32.3142148673      -10.4477055242  MEMB      129             0.0000000000
     18215       157  DOPC      C25            26.3284565200       30.5763178991       -9.9429983279  MEMB      129             0.0000000000
     18216       157  DOPC      H5R            27.1517082395       31.3105685659       -9.8022227620  MEMB      129             0.0000000000
     18217       157  DOPC      H5S            26.7374488159       29.6893937566      -10.4763083261  MEMB      129             0.0000000000
     18218       157  DOPC      C26            25.7451165201       30.1415213621       -8.6050335690  MEMB      129             0.0000000000
     18219       157  DOPC      H6R            26.4718996802       29.5118418493       -8.0461272169  MEMB      129             0.0000000000
     18220       157  DOPC      H6S            24.8368212745       29.5310992172       -8.7989368027  MEMB      129             0.0000000000
     18221       157  DOPC      C27            25.3530745892       31.3575551719       -7.7670409137  MEMB      129             0.0000000000
     18222       157  DOPC      H7R            24.5066297883       31.8736880757       -8.2694535044  MEMB      129             0.0000000000
     18223       157  DOPC      H7S            26.2043191241       32.0756257824       -7.7523968200  MEMB      129             0.0000000000
     18224       157  DOPC      C28            24.9943335496       30.9831582223       -6.3261257737  MEMB      129             0.0000000000
     18225       157  DOPC      H8R            24.9353152018       31.9116419376       -5.7187757333  MEMB      129             0.0000000000
     18226       157  DOPC      H8S            25.8405986655       30.3894162006       -5.9226291891  MEMB      129             0.0000000000
     18227       157  DOPC      C29            23.6818971340       30.2429228988       -6.2855031490  MEMB      129             0.0000000000
     18228       157  DOPC      H9R            23.0714075897       30.3581662818       -7.1943535207  MEMB      129             0.0000000000
     18229       157  DOPC      C210           23.2269354791       29.4226743350       -5.3258985489  MEMB      129             0.0000000000
     18230       157  DOPC      H10R           22.2300283427       28.9784314163       -5.4445068894  MEMB      129             0.0000000000
     18231       157  DOPC      C211           23.8954388049       29.0201483836       -4.0440514852  MEMB      129             0.0000000000
     18232       157  DOPC      H11R           23.3681325608       28.1245940634       -3.6552023603  MEMB      129             0.0000000000
     18233       157  DOPC      H11S           23.8292610011       29.8492403238       -3.3087366225  MEMB      129             0.0000000000
     18234       157  DOPC      C212           25.3454052961       28.5962485594       -4.1303934010  MEMB      129             0.0000000000
     18235       157  DOPC      H12R           25.9895559283       29.4934751545       -3.9647883457  MEMB      129             0.0000000000
     18236       157  DOPC      H12S           25.5599416640       28.2283167812       -5.1604825041  MEMB      129             0.0000000000
     18237       157  DOPC      C213           25.8118977929       27.5212725317       -3.1348325320  MEMB      129             0.0000000000
     18238       157  DOPC      H13R           26.2197760125       27.9484329553       -2.1964400626  MEMB      129             0.0000000000
     18239       157  DOPC      H13S           26.6066054000       27.1510305550       -3.7947260811  MEMB      129             0.0000000000
     18240       157  DOPC      C214           25.1616726724       26.1521886613       -2.9001757839  MEMB      129             0.0000000000
     18241       157  DOPC      H14R           24.9947676789       25.7108959363       -3.8954920095  MEMB      129             0.0000000000
     18242       157  DOPC      H14S           24.2126762499       26.1887230373       -2.3302022955  MEMB      129             0.0000000000
     18243       157  DOPC      C215           26.1751048574       25.1808177977       -2.2650452511  MEMB      129             0.0000000000
     18244       157  DOPC      H15R           27.1686723912       25.3380155630       -2.7395660800  MEMB      129             0.0000000000
     18245       157  DOPC      H15S           25.8995101505       24.1279696469       -2.4840629980  MEMB      129             0.0000000000
     18246       157  DOPC      C216           26.3060293717       25.3717775413       -0.7600976931  MEMB      129             0.0000000000
     18247       157  DOPC      H16R           26.0395319778       24.4328531824       -0.2286857936  MEMB      129             0.0000000000
     18248       157  DOPC      H16S           25.5747635077       26.1523222640       -0.4563246698  MEMB      129             0.0000000000
     18249       157  DOPC      C217           27.6998070955       25.8328276703       -0.3433067034  MEMB      129             0.0000000000
     18250       157  DOPC      H17R           27.6006765536       26.5019607242        0.5338936123  MEMB      129             0.0000000000
     18251       157  DOPC      H17S           28.1348088686       26.4416545549       -1.1632177428  MEMB      129             0.0000000000
     18252       157  DOPC      C218           28.6304878262       24.6801762279        0.0206161863  MEMB      129             0.0000000000
     18253       157  DOPC      H18R           29.0863098013       24.2623490601       -0.9010525562  MEMB      129             0.0000000000
     18254       157  DOPC      H18S           28.0703259923       23.8644892962        0.5162650947  MEMB      129             0.0000000000
     18255       157  DOPC      H18T           29.4462429724       24.9982384398        0.6974695680  MEMB      129             0.0000000000
     18256       157  DOPC      C33            29.7556958564       26.5342405933      -13.9589340059  MEMB      129             0.0000000000
     18257       157  DOPC      H3X            30.1002286510       26.1077581565      -14.9327867398  MEMB      129             0.0000000000
     18258       157  DOPC      H3Y            30.0033780525       25.7784818316      -13.1809703850  MEMB      129             0.0000000000
     18259       157  DOPC      C34            30.5854514215       27.7888975805      -13.6765158955  MEMB      129             0.0000000000
     18260       157  DOPC      H4X            30.6844508944       28.3874100201      -14.6104398128  MEMB      129             0.0000000000
     18261       157  DOPC      H4Y            31.5859042007       27.4067427272      -13.3915398716  MEMB      129             0.0000000000
     18262       157  DOPC      C35            30.2228388362       28.7514421876      -12.5421941993  MEMB      129             0.0000000000
     18263       157  DOPC      H5X            30.1169779684       28.2016109397      -11.5822952136  MEMB      129             0.0000000000
     18264       157  DOPC      H5Y            29.2707433003       29.2791761059      -12.7691630894  MEMB      129             0.0000000000
     18265       157  DOPC      C36            31.3755206312       29.7727991965      -12.4517612233  MEMB      129             0.0000000000
     18266       157  DOPC      H6X            32.3345768921       29.2185155782      -12.3486732170  MEMB      129             0.0000000000
     18267       157  DOPC      H6Y            31.4313572924       30.3427556178      -13.4080630896  MEMB      129             0.0000000000
     18268       157  DOPC      C37            31.3309063279       30.7694893927      -11.2941992601  MEMB      129             0.0000000000
     18269       157  DOPC      H7X            31.5169417442       30.2051744362      -10.3542344117  MEMB      129             0.0000000000
     18270       157  DOPC      H7Y            32.1769355296       31.4855432978      -11.4331334258  MEMB      129             0.0000000000
     18271       157  DOPC      C38            30.0310917465       31.5748189439      -11.2145601606  MEMB      129             0.0000000000
     18272       157  DOPC      H8X            29.1595008551       30.8867651464      -11.2089111820  MEMB      129             0.0000000000
     18273       157  DOPC      H8Y            29.9165950113       32.2221197910      -12.1104629561  MEMB      129             0.0000000000
     18274       157  DOPC      C39            30.1127434035       32.3952789010       -9.9632628809  MEMB      129             0.0000000000
     18275       157  DOPC      H9X            30.5492609409       33.4002462245      -10.0775858028  MEMB      129             0.0000000000
     18276       157  DOPC      C310           29.7381331712       31.9468167737       -8.7566818838  MEMB      129             0.0000000000
     18277       157  DOPC      H10X           29.8515053367       32.6033589006       -7.8823673346  MEMB      129             0.0000000000
     18278       157  DOPC      C311           29.1808791229       30.5740469515       -8.4838065904  MEMB      129             0.0000000000
     18279       157  DOPC      H11X           28.8314976954       30.0654930170       -9.4089250297  MEMB      129             0.0000000000
     18280       157  DOPC      H11Y           28.2836428829       30.6802511998       -7.8381111743  MEMB      129             0.0000000000
     18281       157  DOPC      C312           30.1243325680       29.5619251489       -7.8361063415  MEMB      129             0.0000000000
     18282       157  DOPC      H12X           30.9309323031       29.2589255479       -8.5376874996  MEMB      129             0.0000000000
     18283       157  DOPC      H12Y           29.4936150254       28.6767817318       -7.6414925919  MEMB      129             0.0000000000
     18284       157  DOPC      C313           30.7295135847       30.0155839943       -6.5176566180  MEMB      129             0.0000000000
     18285       157  DOPC      H13X           31.1937976013       29.1420745570       -6.0078759817  MEMB      129             0.0000000000
     18286       157  DOPC      H13Y           31.5524315904       30.7188181682       -6.7422341477  MEMB      129             0.0000000000
     18287       157  DOPC      C314           29.7350224108       30.6929377431       -5.5711804429  MEMB      129             0.0000000000
     18288       157  DOPC      H14X           29.1789833930       31.5242213348       -6.0519604894  MEMB      129             0.0000000000
     18289       157  DOPC      H14Y           28.9775155652       29.9485453347       -5.2539014101  MEMB      129             0.0000000000
     18290       157  DOPC      C315           30.4841981541       31.2409066906       -4.3701604459  MEMB      129             0.0000000000
     18291       157  DOPC      H15X           30.9335472865       32.2287878974       -4.6180100815  MEMB      129             0.0000000000
     18292       157  DOPC      H15Y           31.3318621181       30.5461726678       -4.1616716241  MEMB      129             0.0000000000
     18293       157  DOPC      C316           29.6307868366       31.3264573380       -3.1081955139  MEMB      129             0.0000000000
     18294       157  DOPC      H16X           29.0444775195       32.2728275090       -3.1290152665  MEMB      129             0.0000000000
     18295       157  DOPC      H16Y           28.9192037834       30.4739971737       -3.0407331552  MEMB      129             0.0000000000
     18296       157  DOPC      C317           30.5408768610       31.2961697272       -1.8867246827  MEMB      129             0.0000000000
     18297       157  DOPC      H17X           31.4888917577       31.8046420080       -2.1824592867  MEMB      129             0.0000000000
     18298       157  DOPC      H17Y           30.0683551135       31.8313370923       -1.0399440763  MEMB      129             0.0000000000
     18299       157  DOPC      C318           30.8409704328       29.9215842035       -1.3423355265  MEMB      129             0.0000000000
     18300       157  DOPC      H18X           29.8958808893       29.4699371712       -0.9697596206  MEMB      129             0.0000000000
     18301       157  DOPC      H18Y           31.3007031321       29.3176372596       -2.1405583226  MEMB      129             0.0000000000
     18302       157  DOPC      H18Z           31.5501310791       29.8928750479       -0.5075524628  MEMB      129             0.0000000000
     18303       158  DOPC      N             -23.8171632605       33.0234447133      -19.8882650903  MEMB      130             0.0000000000
     18304       158  DOPC      C12           -24.6140597690       32.2746744427      -18.8137729276  MEMB      130             0.0000000000
     18305       158  DOPC      H12A          -23.9214580589       31.8274259586      -18.1231030523  MEMB      130             0.0000000000
     18306       158  DOPC      H12B          -25.1966377017       31.4766518455      -19.2711534828  MEMB      130             0.0000000000
     18307       158  DOPC      C13           -23.2459661988       34.2773793803      -19.2962560165  MEMB      130             0.0000000000
     18308       158  DOPC      H13A          -22.4690303051       34.0733406906      -18.5567686236  MEMB      130             0.0000000000
     18309       158  DOPC      H13B          -22.8291128482       34.9125010452      -20.0582377047  MEMB      130             0.0000000000
     18310       158  DOPC      H13C          -24.0324960714       34.8604416468      -18.8140575642  MEMB      130             0.0000000000
     18311       158  DOPC      C14           -24.7444256301       33.3579662409      -21.0087132549  MEMB      130             0.0000000000
     18312       158  DOPC      H14A          -25.7075321580       33.6541510129      -20.5830920551  MEMB      130             0.0000000000
     18313       158  DOPC      H14B          -24.3601311613       34.1589813421      -21.6223207982  MEMB      130             0.0000000000
     18314       158  DOPC      H14C          -24.9059805993       32.4970999220      -21.6507563307  MEMB      130             0.0000000000
     18315       158  DOPC      C15           -22.7009848838       32.1922407563      -20.4201542032  MEMB      130             0.0000000000
     18316       158  DOPC      H15A          -22.3046679803       32.5370905793      -21.3678607644  MEMB      130             0.0000000000
     18317       158  DOPC      H15B          -22.9385510837       31.1438028851      -20.5277692667  MEMB      130             0.0000000000
     18318       158  DOPC      H15C          -21.8463259977       32.2287896440      -19.7361737783  MEMB      130             0.0000000000
     18319       158  DOPC      C11           -25.6650340074       33.0646644447      -17.9935497339  MEMB      130             0.0000000000
     18320       158  DOPC      H11A          -25.9170250572       32.4771742276      -17.0731670463  MEMB      130             0.0000000000
     18321       158  DOPC      H11B          -25.2466401286       34.0256987586      -17.6193949530  MEMB      130             0.0000000000
     18322       158  DOPC      P             -28.1295778695       32.4350666249      -18.7279610614  MEMB      130             0.0000000000
     18323       158  DOPC      O13           -27.6847582793       31.0546168556      -18.4287631102  MEMB      130             0.0000000000
     18324       158  DOPC      O14           -28.9507457630       32.6727479148      -19.9517656943  MEMB      130             0.0000000000
     18325       158  DOPC      O12           -26.8038997346       33.3155360616      -18.8185425599  MEMB      130             0.0000000000
     18326       158  DOPC      O11           -28.9050337389       33.0576478102      -17.5070705421  MEMB      130             0.0000000000
     18327       158  DOPC      C1            -29.1528028846       34.4683141786      -17.5549827772  MEMB      130             0.0000000000
     18328       158  DOPC      HA            -30.2530624839       34.6275676874      -17.5915487754  MEMB      130             0.0000000000
     18329       158  DOPC      HB            -28.7461453043       34.9648592877      -18.4740120668  MEMB      130             0.0000000000
     18330       158  DOPC      C2            -28.5675810627       35.2906971390      -16.3612943251  MEMB      130             0.0000000000
     18331       158  DOPC      HS            -27.9960599108       36.1174416688      -16.8426005055  MEMB      130             0.0000000000
     18332       158  DOPC      O21           -27.7674966625       34.5237926287      -15.4265710012  MEMB      130             0.0000000000
     18333       158  DOPC      C21           -26.5764231825       35.0541623657      -15.1384264529  MEMB      130             0.0000000000
     18334       158  DOPC      O22           -26.0977639705       36.0296063192      -15.6912191193  MEMB      130             0.0000000000
     18335       158  DOPC      C22           -25.9342638526       34.3173744171      -13.9551059971  MEMB      130             0.0000000000
     18336       158  DOPC      H2R           -25.1475780204       33.6414966346      -14.3440759743  MEMB      130             0.0000000000
     18337       158  DOPC      H2S           -26.7232019501       33.7129426922      -13.4856570377  MEMB      130             0.0000000000
     18338       158  DOPC      C3            -29.7658900834       35.9562105051      -15.6208034693  MEMB      130             0.0000000000
     18339       158  DOPC      HX            -30.2092527191       36.6130947309      -16.3968998180  MEMB      130             0.0000000000
     18340       158  DOPC      HY            -29.4222627436       36.6040608543      -14.7987046145  MEMB      130             0.0000000000
     18341       158  DOPC      O31           -30.7684815762       35.0092078719      -15.2076809632  MEMB      130             0.0000000000
     18342       158  DOPC      C31           -30.8393763963       34.7730358365      -13.9031094026  MEMB      130             0.0000000000
     18343       158  DOPC      O32           -30.4445924571       35.5265181272      -13.0296917874  MEMB      130             0.0000000000
     18344       158  DOPC      C32           -31.4532418948       33.4095984744      -13.6345666674  MEMB      130             0.0000000000
     18345       158  DOPC      H2X           -31.1910048031       33.1244748150      -12.5954677979  MEMB      130             0.0000000000
     18346       158  DOPC      H2Y           -32.5550058330       33.5110933783      -13.6958652096  MEMB      130             0.0000000000
     18347       158  DOPC      C23           -25.3280661762       35.2527003112      -12.8762741145  MEMB      130             0.0000000000
     18348       158  DOPC      H3R           -24.5830336595       35.9371066109      -13.3387022477  MEMB      130             0.0000000000
     18349       158  DOPC      H3S           -24.7801138473       34.6377256587      -12.1248078879  MEMB      130             0.0000000000
     18350       158  DOPC      C24           -26.3817199256       36.0800112501      -12.1276016243  MEMB      130             0.0000000000
     18351       158  DOPC      H4R           -27.1198054033       36.5036295162      -12.8407575678  MEMB      130             0.0000000000
     18352       158  DOPC      H4S           -25.8702797730       36.9373299926      -11.6315454937  MEMB      130             0.0000000000
     18353       158  DOPC      C25           -27.1272724970       35.2909811754      -11.0478609979  MEMB      130             0.0000000000
     18354       158  DOPC      H5R           -26.3836225216       34.8568511810      -10.3407590554  MEMB      130             0.0000000000
     18355       158  DOPC      H5S           -27.7030016890       34.4542035375      -11.4996565913  MEMB      130             0.0000000000
     18356       158  DOPC      C26           -28.0723476886       36.1933694477      -10.2615140972  MEMB      130             0.0000000000
     18357       158  DOPC      H6R           -28.8498665884       36.6420991304      -10.9191096091  MEMB      130             0.0000000000
     18358       158  DOPC      H6S           -27.4643313608       37.0320820044       -9.8519568888  MEMB      130             0.0000000000
     18359       158  DOPC      C27           -28.7611435404       35.4639549729       -9.1098241556  MEMB      130             0.0000000000
     18360       158  DOPC      H7R           -28.1323943729       34.6033923533       -8.7793731498  MEMB      130             0.0000000000
     18361       158  DOPC      H7S           -29.7184787540       35.0350968771       -9.4779061812  MEMB      130             0.0000000000
     18362       158  DOPC      C28           -29.0068700248       36.4224010644       -7.9419080603  MEMB      130             0.0000000000
     18363       158  DOPC      H8R           -29.8358196324       36.0203668846       -7.3214136933  MEMB      130             0.0000000000
     18364       158  DOPC      H8S           -29.3386957633       37.4077446340       -8.3308676740  MEMB      130             0.0000000000
     18365       158  DOPC      C29           -27.7110169034       36.5381953690       -7.1872654326  MEMB      130             0.0000000000
     18366       158  DOPC      H9R           -26.8358178675       36.8724575514       -7.7659028866  MEMB      130             0.0000000000
     18367       158  DOPC      C210          -27.5620563156       36.2631403312       -5.8925631279  MEMB      130             0.0000000000
     18368       158  DOPC      H10R          -26.5458507543       36.2435900192       -5.4831825099  MEMB      130             0.0000000000
     18369       158  DOPC      C211          -28.6585798921       35.8017916380       -4.9746619625  MEMB      130             0.0000000000
     18370       158  DOPC      H11R          -28.2320363752       35.3054975577       -4.0754568284  MEMB      130             0.0000000000
     18371       158  DOPC      H11S          -29.2830417006       35.0513799630       -5.4930673869  MEMB      130             0.0000000000
     18372       158  DOPC      C212          -29.5921455146       36.9387670296       -4.5187158149  MEMB      130             0.0000000000
     18373       158  DOPC      H12R          -30.2201480599       37.2748769703       -5.3748094163  MEMB      130             0.0000000000
     18374       158  DOPC      H12S          -28.9960722950       37.8162884627       -4.1893024237  MEMB      130             0.0000000000
     18375       158  DOPC      C213          -30.5064790433       36.5184620233       -3.3618184183  MEMB      130             0.0000000000
     18376       158  DOPC      H13R          -31.0186024340       37.4369912418       -2.9889796676  MEMB      130             0.0000000000
     18377       158  DOPC      H13S          -29.9164019856       36.0997182146       -2.5253268512  MEMB      130             0.0000000000
     18378       158  DOPC      C214          -31.5690158131       35.5073069561       -3.7886430806  MEMB      130             0.0000000000
     18379       158  DOPC      H14R          -31.8775241668       35.7503060058       -4.8226327874  MEMB      130             0.0000000000
     18380       158  DOPC      H14S          -32.4506422272       35.5976525472       -3.1174527275  MEMB      130             0.0000000000
     18381       158  DOPC      C215          -31.1858427602       34.0383166682       -3.7119317358  MEMB      130             0.0000000000
     18382       158  DOPC      H15R          -30.2871684699       33.8003454873       -4.3008103775  MEMB      130             0.0000000000
     18383       158  DOPC      H15S          -32.0139767624       33.4651221771       -4.1844473789  MEMB      130             0.0000000000
     18384       158  DOPC      C216          -31.0297167898       33.5857867086       -2.2667623595  MEMB      130             0.0000000000
     18385       158  DOPC      H16R          -31.8131478241       34.0664987267       -1.6441925254  MEMB      130             0.0000000000
     18386       158  DOPC      H16S          -30.0366782620       33.8907638880       -1.8632554292  MEMB      130             0.0000000000
     18387       158  DOPC      C217          -31.1689277558       32.0798250321       -2.1776093978  MEMB      130             0.0000000000
     18388       158  DOPC      H17R          -30.1816630564       31.6875760867       -2.4889816430  MEMB      130             0.0000000000
     18389       158  DOPC      H17S          -31.9113065561       31.7033771285       -2.9104226558  MEMB      130             0.0000000000
     18390       158  DOPC      C218          -31.5230800495       31.5738315312       -0.7885444968  MEMB      130             0.0000000000
     18391       158  DOPC      H18R          -30.7969900479       32.0045088907       -0.0731356994  MEMB      130             0.0000000000
     18392       158  DOPC      H18S          -31.4667508724       30.4655639482       -0.7433411267  MEMB      130             0.0000000000
     18393       158  DOPC      H18T          -32.5495817815       31.8807321243       -0.4959827347  MEMB      130             0.0000000000
     18394       158  DOPC      C33           -30.9596699114       32.3345956634      -14.6252579814  MEMB      130             0.0000000000
     18395       158  DOPC      H3X           -31.0984302475       32.6591400747      -15.6815231703  MEMB      130             0.0000000000
     18396       158  DOPC      H3Y           -31.5671949388       31.4161506621      -14.4586466310  MEMB      130             0.0000000000
     18397       158  DOPC      C34           -29.5265539681       31.8529261671      -14.4067465791  MEMB      130             0.0000000000
     18398       158  DOPC      H4X           -28.8179177503       32.6998785419      -14.3526681045  MEMB      130             0.0000000000
     18399       158  DOPC      H4Y           -29.2316722900       31.2591938143      -15.3038703366  MEMB      130             0.0000000000
     18400       158  DOPC      C35           -29.4795428774       30.9652702865      -13.1633765996  MEMB      130             0.0000000000
     18401       158  DOPC      H5X           -30.2747871496       30.2075001911      -13.2231422602  MEMB      130             0.0000000000
     18402       158  DOPC      H5Y           -29.7409929645       31.5862396828      -12.2772301596  MEMB      130             0.0000000000
     18403       158  DOPC      C36           -28.1378464713       30.2642881183      -12.9320060109  MEMB      130             0.0000000000
     18404       158  DOPC      H6X           -28.3110376483       29.3032975211      -12.3949813923  MEMB      130             0.0000000000
     18405       158  DOPC      H6Y           -27.6289174850       30.0484145708      -13.8939917624  MEMB      130             0.0000000000
     18406       158  DOPC      C37           -27.3766474638       31.2166609158      -12.0304920241  MEMB      130             0.0000000000
     18407       158  DOPC      H7X           -27.3787010967       32.2063312225      -12.5208059919  MEMB      130             0.0000000000
     18408       158  DOPC      H7Y           -28.0727615243       31.3123182584      -11.1650030756  MEMB      130             0.0000000000
     18409       158  DOPC      C38           -25.9735652353       30.8791089321      -11.5280647314  MEMB      130             0.0000000000
     18410       158  DOPC      H8X           -25.2075448210       31.0060399734      -12.3249250612  MEMB      130             0.0000000000
     18411       158  DOPC      H8Y           -25.9101347787       29.8390164745      -11.1416718777  MEMB      130             0.0000000000
     18412       158  DOPC      C39           -25.8491085108       31.9234710389      -10.4453854248  MEMB      130             0.0000000000
     18413       158  DOPC      H9X           -25.3052143065       32.8386407218      -10.7309656895  MEMB      130             0.0000000000
     18414       158  DOPC      C310          -26.3589215617       31.8080795971       -9.2014951524  MEMB      130             0.0000000000
     18415       158  DOPC      H10X          -26.2410490061       32.6607617404       -8.5148697083  MEMB      130             0.0000000000
     18416       158  DOPC      C311          -27.1251626685       30.6293464803       -8.6366258461  MEMB      130             0.0000000000
     18417       158  DOPC      H11X          -26.7956576673       30.5016278045       -7.5821842779  MEMB      130             0.0000000000
     18418       158  DOPC      H11Y          -26.8153573406       29.6891066578       -9.1465815654  MEMB      130             0.0000000000
     18419       158  DOPC      C312          -28.6768799875       30.6296832951       -8.6196506189  MEMB      130             0.0000000000
     18420       158  DOPC      H12X          -28.9966311227       29.7418285344       -8.0263596347  MEMB      130             0.0000000000
     18421       158  DOPC      H12Y          -29.0843034850       30.4682510856       -9.6399003573  MEMB      130             0.0000000000
     18422       158  DOPC      C313          -29.3357285262       31.8825646795       -8.0180969272  MEMB      130             0.0000000000
     18423       158  DOPC      H13X          -29.2621140917       32.7157213650       -8.7500150842  MEMB      130             0.0000000000
     18424       158  DOPC      H13Y          -30.4207918435       31.6715472873       -7.8742448845  MEMB      130             0.0000000000
     18425       158  DOPC      C314          -28.7288953739       32.3466082320       -6.6828206287  MEMB      130             0.0000000000
     18426       158  DOPC      H14X          -27.6862156015       32.6890590531       -6.8324287080  MEMB      130             0.0000000000
     18427       158  DOPC      H14Y          -29.3287481877       33.2124025387       -6.3303742705  MEMB      130             0.0000000000
     18428       158  DOPC      C315          -28.7787233990       31.2658549460       -5.6022185868  MEMB      130             0.0000000000
     18429       158  DOPC      H15X          -28.2980617363       30.3254602007       -5.9467176106  MEMB      130             0.0000000000
     18430       158  DOPC      H15Y          -29.8696398089       31.0871762569       -5.4758792710  MEMB      130             0.0000000000
     18431       158  DOPC      C316          -28.2116981154       31.6410975742       -4.2253414809  MEMB      130             0.0000000000
     18432       158  DOPC      H16X          -28.7955825364       32.5011737888       -3.8410709616  MEMB      130             0.0000000000
     18433       158  DOPC      H16Y          -28.3740672253       30.7887790400       -3.5238749127  MEMB      130             0.0000000000
     18434       158  DOPC      C317          -26.7321631484       32.0264525359       -4.1703897434  MEMB      130             0.0000000000
     18435       158  DOPC      H17X          -26.1125685351       31.1010231195       -4.1926032673  MEMB      130             0.0000000000
     18436       158  DOPC      H17Y          -26.4581071548       32.6444685636       -5.0521107477  MEMB      130             0.0000000000
     18437       158  DOPC      C318          -26.4270046681       32.8302556639       -2.9060770050  MEMB      130             0.0000000000
     18438       158  DOPC      H18X          -25.3487405132       33.0874210248       -2.8454029785  MEMB      130             0.0000000000
     18439       158  DOPC      H18Y          -27.0129843560       33.7732385036       -2.8827611394  MEMB      130             0.0000000000
     18440       158  DOPC      H18Z          -26.7155872338       32.2440907846       -2.0102343381  MEMB      130             0.0000000000
     18441       159  DOPC      N             -31.4593446598       25.7557335722      -18.9189406451  MEMB      131             0.0000000000
     18442       159  DOPC      C12           -32.3024347211       26.3396167832      -17.7981220719  MEMB      131             0.0000000000
     18443       159  DOPC      H12A          -32.1335952390       27.4148273024      -17.7572501204  MEMB      131             0.0000000000
     18444       159  DOPC      H12B          -31.9724600872       25.9212908490      -16.8560231026  MEMB      131             0.0000000000
     18445       159  DOPC      C13           -30.0805734853       25.3643605275      -18.5618454266  MEMB      131             0.0000000000
     18446       159  DOPC      H13A          -29.6627608361       24.6927204753      -19.3200604980  MEMB      131             0.0000000000
     18447       159  DOPC      H13B          -29.4235902738       26.2319975622      -18.5769939943  MEMB      131             0.0000000000
     18448       159  DOPC      H13C          -29.9955608172       24.8558579688      -17.6159389722  MEMB      131             0.0000000000
     18449       159  DOPC      C14           -31.3403317719       26.7554992275      -20.0341911118  MEMB      131             0.0000000000
     18450       159  DOPC      H14A          -30.7991139445       27.6586817222      -19.7526380378  MEMB      131             0.0000000000
     18451       159  DOPC      H14B          -30.8516134158       26.3102122370      -20.8921042904  MEMB      131             0.0000000000
     18452       159  DOPC      H14C          -32.3355744505       27.0937096143      -20.3310056152  MEMB      131             0.0000000000
     18453       159  DOPC      C15           -32.1153491087       24.5472295654      -19.4759921120  MEMB      131             0.0000000000
     18454       159  DOPC      H15A          -33.0842624155       24.8538237021      -19.8572307936  MEMB      131             0.0000000000
     18455       159  DOPC      H15B          -32.1990830279       23.7392419634      -18.7657027114  MEMB      131             0.0000000000
     18456       159  DOPC      H15C          -31.5076301298       24.2109053878      -20.3172674991  MEMB      131             0.0000000000
     18457       159  DOPC      C11           -33.8516798305       26.1746197072      -17.8786534502  MEMB      131             0.0000000000
     18458       159  DOPC      H11A          -34.1088193597       25.1031484252      -17.7468909687  MEMB      131             0.0000000000
     18459       159  DOPC      H11B          -34.3097525283       26.6920426741      -17.0150889276  MEMB      131             0.0000000000
     18460       159  DOPC      P             -34.4644025457       28.1258099181      -19.5772557998  MEMB      131             0.0000000000
     18461       159  DOPC      O13           -35.8298328983       28.6703249511      -19.3981729330  MEMB      131             0.0000000000
     18462       159  DOPC      O14           -33.9860637550       27.9965867226      -20.9644143726  MEMB      131             0.0000000000
     18463       159  DOPC      O12           -34.4337845822       26.6223395481      -19.0923650002  MEMB      131             0.0000000000
     18464       159  DOPC      O11           -33.3806862613       28.8356278832      -18.6890713340  MEMB      131             0.0000000000
     18465       159  DOPC      C1            -33.2292713173       30.2591213040      -18.8455879746  MEMB      131             0.0000000000
     18466       159  DOPC      HA            -34.2137952923       30.7865718449      -18.9131522767  MEMB      131             0.0000000000
     18467       159  DOPC      HB            -32.6755809616       30.5071129486      -19.7762537259  MEMB      131             0.0000000000
     18468       159  DOPC      C2            -32.4859469075       30.8642046084      -17.6115774088  MEMB      131             0.0000000000
     18469       159  DOPC      HS            -31.9267633758       31.7724545796      -17.9175658342  MEMB      131             0.0000000000
     18470       159  DOPC      O21           -31.5503675729       29.9601304429      -16.9881999494  MEMB      131             0.0000000000
     18471       159  DOPC      C21           -30.6431205913       29.4508409121      -17.7988932433  MEMB      131             0.0000000000
     18472       159  DOPC      O22           -30.5463508199       29.6172904418      -18.9989645974  MEMB      131             0.0000000000
     18473       159  DOPC      C22           -29.7301881485       28.4764273698      -17.0283492963  MEMB      131             0.0000000000
     18474       159  DOPC      H2R           -28.6848178438       28.7793731860      -17.2528292750  MEMB      131             0.0000000000
     18475       159  DOPC      H2S           -29.8866084845       27.4807621829      -17.4390690395  MEMB      131             0.0000000000
     18476       159  DOPC      C3            -33.5786300338       31.2607710755      -16.5825082870  MEMB      131             0.0000000000
     18477       159  DOPC      HX            -34.0434067492       32.2184442942      -16.8687832406  MEMB      131             0.0000000000
     18478       159  DOPC      HY            -33.1471081796       31.3938896393      -15.5791621758  MEMB      131             0.0000000000
     18479       159  DOPC      O31           -34.5563633845       30.2233864899      -16.5976238087  MEMB      131             0.0000000000
     18480       159  DOPC      C31           -35.2650907602       29.9762560146      -15.5444538215  MEMB      131             0.0000000000
     18481       159  DOPC      O32           -35.4622885262       30.7165313047      -14.5996383141  MEMB      131             0.0000000000
     18482       159  DOPC      C32           -35.4105279674       28.4456123729      -15.5611688228  MEMB      131             0.0000000000
     18483       159  DOPC      H2X           -35.7012072871       28.1558826723      -16.5931617648  MEMB      131             0.0000000000
     18484       159  DOPC      H2Y           -34.4027365773       28.0442828642      -15.3272972705  MEMB      131             0.0000000000
     18485       159  DOPC      C23           -29.9155069376       28.3727523559      -15.5035505472  MEMB      131             0.0000000000
     18486       159  DOPC      H3R           -30.1291865574       29.3825314675      -15.1139484048  MEMB      131             0.0000000000
     18487       159  DOPC      H3S           -28.9610686789       28.0291201048      -15.0356403591  MEMB      131             0.0000000000
     18488       159  DOPC      C24           -31.0221246048       27.4276367308      -15.0235441350  MEMB      131             0.0000000000
     18489       159  DOPC      H4R           -30.7421044045       26.3668262129      -15.2056389807  MEMB      131             0.0000000000
     18490       159  DOPC      H4S           -31.9819654468       27.6565882294      -15.5358453097  MEMB      131             0.0000000000
     18491       159  DOPC      C25           -31.2189546535       27.6828103481      -13.5334832357  MEMB      131             0.0000000000
     18492       159  DOPC      H5R           -31.5927059108       28.7289544593      -13.4554108886  MEMB      131             0.0000000000
     18493       159  DOPC      H5S           -30.2409066486       27.6105382386      -13.0018497481  MEMB      131             0.0000000000
     18494       159  DOPC      C26           -32.2179371028       26.7930448621      -12.8132870870  MEMB      131             0.0000000000
     18495       159  DOPC      H6R           -31.9628075016       25.7184957094      -12.9476238500  MEMB      131             0.0000000000
     18496       159  DOPC      H6S           -33.2290144644       26.9664309560      -13.2371880870  MEMB      131             0.0000000000
     18497       159  DOPC      C27           -32.2051656645       27.1228502646      -11.3118547303  MEMB      131             0.0000000000
     18498       159  DOPC      H7R           -31.2239447146       26.7938545387      -10.8995667299  MEMB      131             0.0000000000
     18499       159  DOPC      H7S           -32.9919045386       26.5137285397      -10.8203473525  MEMB      131             0.0000000000
     18500       159  DOPC      C28           -32.4020239357       28.6167439152      -10.9673803004  MEMB      131             0.0000000000
     18501       159  DOPC      H8R           -31.5864637098       29.2290538339      -11.4094407178  MEMB      131             0.0000000000
     18502       159  DOPC      H8S           -32.2880203998       28.7318149265       -9.8679092629  MEMB      131             0.0000000000
     18503       159  DOPC      C29           -33.7514352610       29.0755538831      -11.4661932383  MEMB      131             0.0000000000
     18504       159  DOPC      H9R           -33.8146748360       29.2362701776      -12.5551862846  MEMB      131             0.0000000000
     18505       159  DOPC      C210          -34.8262316381       29.3671246110      -10.7165294259  MEMB      131             0.0000000000
     18506       159  DOPC      H10R          -35.7551657238       29.6750167159      -11.2240373043  MEMB      131             0.0000000000
     18507       159  DOPC      C211          -34.9137059649       29.3077399159       -9.2146562849  MEMB      131             0.0000000000
     18508       159  DOPC      H11R          -35.3090325093       30.2836720039       -8.9025977137  MEMB      131             0.0000000000
     18509       159  DOPC      H11S          -33.9131282195       29.2228582058       -8.7376789547  MEMB      131             0.0000000000
     18510       159  DOPC      C212          -35.8105071898       28.2329391968       -8.5725932884  MEMB      131             0.0000000000
     18511       159  DOPC      H12R          -35.3365337572       27.2477774176       -8.7484195122  MEMB      131             0.0000000000
     18512       159  DOPC      H12S          -36.8196921490       28.2192245686       -9.0365870109  MEMB      131             0.0000000000
     18513       159  DOPC      C213          -35.9205704132       28.4504703927       -7.0518715623  MEMB      131             0.0000000000
     18514       159  DOPC      H13R          -36.5458397905       29.3511756290       -6.8610814421  MEMB      131             0.0000000000
     18515       159  DOPC      H13S          -34.8991674328       28.6642744881       -6.6666856730  MEMB      131             0.0000000000
     18516       159  DOPC      C214          -36.5049238188       27.2564108473       -6.2837994218  MEMB      131             0.0000000000
     18517       159  DOPC      H14R          -36.1426657643       26.3060501792       -6.7287167285  MEMB      131             0.0000000000
     18518       159  DOPC      H14S          -37.6041818811       27.2817191481       -6.4097419868  MEMB      131             0.0000000000
     18519       159  DOPC      C215          -36.1742259115       27.1980684764       -4.7819455283  MEMB      131             0.0000000000
     18520       159  DOPC      H15R          -35.2213271254       26.6387764645       -4.6410859296  MEMB      131             0.0000000000
     18521       159  DOPC      H15S          -36.9794935923       26.6221600698       -4.2768770018  MEMB      131             0.0000000000
     18522       159  DOPC      C216          -36.0486873427       28.5511580647       -4.0801704595  MEMB      131             0.0000000000
     18523       159  DOPC      H16R          -36.9833531323       29.1373366005       -4.2112396656  MEMB      131             0.0000000000
     18524       159  DOPC      H16S          -35.2148802777       29.1343220594       -4.5317566450  MEMB      131             0.0000000000
     18525       159  DOPC      C217          -35.7203812411       28.4008235958       -2.5937643382  MEMB      131             0.0000000000
     18526       159  DOPC      H17R          -36.3122715918       27.6002778764       -2.1101267943  MEMB      131             0.0000000000
     18527       159  DOPC      H17S          -35.9872205733       29.3373452044       -2.0975628479  MEMB      131             0.0000000000
     18528       159  DOPC      C218          -34.2332560710       28.1953935025       -2.3761215381  MEMB      131             0.0000000000
     18529       159  DOPC      H18R          -33.9401152821       27.2723060837       -2.9088640826  MEMB      131             0.0000000000
     18530       159  DOPC      H18S          -33.9617090547       28.0992174421       -1.3064675758  MEMB      131             0.0000000000
     18531       159  DOPC      H18T          -33.6756663124       29.0541240293       -2.8139928685  MEMB      131             0.0000000000
     18532       159  DOPC      C33           -36.4300692389       27.8685728844      -14.5718310328  MEMB      131             0.0000000000
     18533       159  DOPC      H3X           -37.4163636839       28.1602804452      -14.9950127823  MEMB      131             0.0000000000
     18534       159  DOPC      H3Y           -36.3105109117       28.3692768762      -13.5867636786  MEMB      131             0.0000000000
     18535       159  DOPC      C34           -36.3833986940       26.3308647021      -14.3503400835  MEMB      131             0.0000000000
     18536       159  DOPC      H4X           -35.6533559592       25.8644633936      -15.0424328142  MEMB      131             0.0000000000
     18537       159  DOPC      H4Y           -37.3868417725       25.9220424101      -14.6082536916  MEMB      131             0.0000000000
     18538       159  DOPC      C35           -36.0654491591       25.9329869255      -12.8887202576  MEMB      131             0.0000000000
     18539       159  DOPC      H5X           -36.6743955733       26.5691467093      -12.2062943719  MEMB      131             0.0000000000
     18540       159  DOPC      H5Y           -35.0045847445       26.1636540442      -12.6770208477  MEMB      131             0.0000000000
     18541       159  DOPC      C36           -36.3277914379       24.4604794967      -12.5023901172  MEMB      131             0.0000000000
     18542       159  DOPC      H6X           -37.4162611647       24.3648742111      -12.2928781533  MEMB      131             0.0000000000
     18543       159  DOPC      H6Y           -36.0737813551       23.7777260665      -13.3417625213  MEMB      131             0.0000000000
     18544       159  DOPC      C37           -35.5729475262       23.9942532748      -11.2360484982  MEMB      131             0.0000000000
     18545       159  DOPC      H7X           -35.9683060851       23.0046927131      -10.9161435532  MEMB      131             0.0000000000
     18546       159  DOPC      H7Y           -34.4956981446       23.8447973288      -11.4772845644  MEMB      131             0.0000000000
     18547       159  DOPC      C38           -35.6789607096       25.0087624654      -10.0821603151  MEMB      131             0.0000000000
     18548       159  DOPC      H8X           -36.6635338535       25.5189509471      -10.1695390103  MEMB      131             0.0000000000
     18549       159  DOPC      H8Y           -34.9091320199       25.7899634903      -10.2652398730  MEMB      131             0.0000000000
     18550       159  DOPC      C39           -35.5643686670       24.4764231711       -8.6769433336  MEMB      131             0.0000000000
     18551       159  DOPC      H9X           -36.5282558668       24.2051838629       -8.2257830643  MEMB      131             0.0000000000
     18552       159  DOPC      C310          -34.4415931927       24.3114064406       -7.9535782101  MEMB      131             0.0000000000
     18553       159  DOPC      H10X          -34.5204733445       23.9396915366       -6.9182139964  MEMB      131             0.0000000000
     18554       159  DOPC      C311          -33.0402045071       24.6214199697       -8.4119673721  MEMB      131             0.0000000000
     18555       159  DOPC      H11X          -32.9410948874       24.4269917205       -9.5038595949  MEMB      131             0.0000000000
     18556       159  DOPC      H11Y          -32.3259822013       23.9341958867       -7.9052509899  MEMB      131             0.0000000000
     18557       159  DOPC      C312          -32.5857173958       26.0713725178       -8.1642346847  MEMB      131             0.0000000000
     18558       159  DOPC      H12X          -33.2369368810       26.7838860452       -8.7115470633  MEMB      131             0.0000000000
     18559       159  DOPC      H12Y          -31.5536095019       26.1812266484       -8.5689027039  MEMB      131             0.0000000000
     18560       159  DOPC      C313          -32.5768732182       26.4678128781       -6.6964680446  MEMB      131             0.0000000000
     18561       159  DOPC      H13X          -33.6036884479       26.4656109108       -6.2741084253  MEMB      131             0.0000000000
     18562       159  DOPC      H13Y          -32.0027144866       25.7064537183       -6.1341950825  MEMB      131             0.0000000000
     18563       159  DOPC      C314          -31.9214769738       27.8206770916       -6.4213339344  MEMB      131             0.0000000000
     18564       159  DOPC      H14X          -30.9629922298       27.9074194923       -6.9802857160  MEMB      131             0.0000000000
     18565       159  DOPC      H14Y          -32.5778096925       28.6574292428       -6.7383375319  MEMB      131             0.0000000000
     18566       159  DOPC      C315          -31.6687599973       27.8509807631       -4.9229285530  MEMB      131             0.0000000000
     18567       159  DOPC      H15X          -31.0558670062       26.9593711141       -4.6657081471  MEMB      131             0.0000000000
     18568       159  DOPC      H15Y          -32.6358341779       27.7328393923       -4.4052035187  MEMB      131             0.0000000000
     18569       159  DOPC      C316          -30.9583457741       29.0704211921       -4.3794285622  MEMB      131             0.0000000000
     18570       159  DOPC      H16X          -30.0209313895       29.1847343692       -4.9623102031  MEMB      131             0.0000000000
     18571       159  DOPC      H16Y          -31.6011632235       29.9716258993       -4.5060735836  MEMB      131             0.0000000000
     18572       159  DOPC      C317          -30.5982174473       28.8343877353       -2.9137272854  MEMB      131             0.0000000000
     18573       159  DOPC      H17X          -30.2958533019       29.7703771566       -2.4275473036  MEMB      131             0.0000000000
     18574       159  DOPC      H17Y          -31.4828954082       28.4356310741       -2.3773467561  MEMB      131             0.0000000000
     18575       159  DOPC      C318          -29.4085914336       27.9146966969       -2.7378037267  MEMB      131             0.0000000000
     18576       159  DOPC      H18X          -29.1666557921       27.7347309376       -1.6773335246  MEMB      131             0.0000000000
     18577       159  DOPC      H18Y          -29.5969409355       26.9335206949       -3.2049789814  MEMB      131             0.0000000000
     18578       159  DOPC      H18Z          -28.5350999317       28.4058297085       -3.2205932228  MEMB      131             0.0000000000
     18579       160  DOPC      N             -32.2016487027      -32.2585948802      -20.0649687548  MEMB      132             0.0000000000
     18580       160  DOPC      C12           -33.7053493304      -32.4272678314      -20.1788027638  MEMB      132             0.0000000000
     18581       160  DOPC      H12A          -34.1241146118      -31.7107560897      -20.8719144357  MEMB      132             0.0000000000
     18582       160  DOPC      H12B          -34.1393653767      -32.1836459255      -19.2070220538  MEMB      132             0.0000000000
     18583       160  DOPC      C13           -31.9941959191      -30.9621259314      -19.3691071590  MEMB      132             0.0000000000
     18584       160  DOPC      H13A          -31.0138424059      -30.5524282806      -19.5442141823  MEMB      132             0.0000000000
     18585       160  DOPC      H13B          -32.6882114025      -30.1993927284      -19.7237185608  MEMB      132             0.0000000000
     18586       160  DOPC      H13C          -32.2074487428      -31.0538422230      -18.3042336448  MEMB      132             0.0000000000
     18587       160  DOPC      C14           -31.5688235665      -32.2617646476      -21.4145495564  MEMB      132             0.0000000000
     18588       160  DOPC      H14A          -31.8965305615      -31.4191680046      -22.0136137776  MEMB      132             0.0000000000
     18589       160  DOPC      H14B          -30.4925042373      -32.2090057794      -21.3310360198  MEMB      132             0.0000000000
     18590       160  DOPC      H14C          -31.7904831573      -33.2134425321      -21.9096100241  MEMB      132             0.0000000000
     18591       160  DOPC      C15           -31.5806708159      -33.3701910008      -19.2668424648  MEMB      132             0.0000000000
     18592       160  DOPC      H15A          -31.7367620227      -33.2537704272      -18.2067747354  MEMB      132             0.0000000000
     18593       160  DOPC      H15B          -30.5390792956      -33.5112663379      -19.5000075154  MEMB      132             0.0000000000
     18594       160  DOPC      H15C          -32.1056520945      -34.3009425711      -19.5160292048  MEMB      132             0.0000000000
     18595       160  DOPC      C11           -34.1953670955      -33.8275174983      -20.4752778830  MEMB      132             0.0000000000
     18596       160  DOPC      H11A          -35.2404646092      -33.8176163721      -20.8724276245  MEMB      132             0.0000000000
     18597       160  DOPC      H11B          -33.5178935721      -34.3161724254      -21.1947312175  MEMB      132             0.0000000000
     18598       160  DOPC      P             -34.2104964947      -35.9342079241      -18.8376963738  MEMB      132             0.0000000000
     18599       160  DOPC      O13           -32.8315599810      -36.3931811734      -18.5524285198  MEMB      132             0.0000000000
     18600       160  DOPC      O14           -34.9593086787      -36.6401384990      -19.8965099473  MEMB      132             0.0000000000
     18601       160  DOPC      O12           -34.1135366410      -34.4324693375      -19.2185381775  MEMB      132             0.0000000000
     18602       160  DOPC      O11           -35.1222392849      -35.7075462668      -17.5380393512  MEMB      132             0.0000000000
     18603       160  DOPC      C1            -36.2385978255      -34.7648324673      -17.5250043345  MEMB      132             0.0000000000
     18604       160  DOPC      HA            -36.9391192488      -35.1074415313      -16.7452871134  MEMB      132             0.0000000000
     18605       160  DOPC      HB            -36.8342307996      -34.7810095345      -18.4687517163  MEMB      132             0.0000000000
     18606       160  DOPC      C2            -35.8947128626      -33.2601832192      -17.1653100833  MEMB      132             0.0000000000
     18607       160  DOPC      HS            -35.6973896482      -32.7495735195      -18.1329441208  MEMB      132             0.0000000000
     18608       160  DOPC      O21           -34.6982863155      -33.2891987545      -16.3410753496  MEMB      132             0.0000000000
     18609       160  DOPC      C21           -33.8758857861      -32.2649772138      -16.4131563828  MEMB      132             0.0000000000
     18610       160  DOPC      O22           -33.9274715624      -31.3649639906      -17.2346311043  MEMB      132             0.0000000000
     18611       160  DOPC      C22           -32.8268167446      -32.3797075762      -15.2833833213  MEMB      132             0.0000000000
     18612       160  DOPC      H2R           -31.8671148649      -32.6013750797      -15.7733617504  MEMB      132             0.0000000000
     18613       160  DOPC      H2S           -33.0706241964      -33.2519736726      -14.6480272824  MEMB      132             0.0000000000
     18614       160  DOPC      C3            -37.0742787266      -32.4302573530      -16.4341136405  MEMB      132             0.0000000000
     18615       160  DOPC      HX            -37.8962190445      -32.2650312495      -17.1585261724  MEMB      132             0.0000000000
     18616       160  DOPC      HY            -36.6543458132      -31.4268547040      -16.1847277764  MEMB      132             0.0000000000
     18617       160  DOPC      O31           -37.5905228092      -33.0468475534      -15.2269692139  MEMB      132             0.0000000000
     18618       160  DOPC      C31           -38.5616749743      -32.5091758029      -14.4591036092  MEMB      132             0.0000000000
     18619       160  DOPC      O32           -39.2248941086      -31.5635404463      -14.8286346016  MEMB      132             0.0000000000
     18620       160  DOPC      C32           -38.9002823623      -33.2375242355      -13.0262286844  MEMB      132             0.0000000000
     18621       160  DOPC      H2X           -39.6615530961      -32.4909319406      -12.6980553992  MEMB      132             0.0000000000
     18622       160  DOPC      H2Y           -39.4894287949      -34.1155195206      -13.2687189833  MEMB      132             0.0000000000
     18623       160  DOPC      C23           -32.6425411626      -31.1132984900      -14.3952119410  MEMB      132             0.0000000000
     18624       160  DOPC      H3R           -33.5763703587      -30.8237442832      -13.8734006412  MEMB      132             0.0000000000
     18625       160  DOPC      H3S           -32.3512008213      -30.2802434101      -15.0702004487  MEMB      132             0.0000000000
     18626       160  DOPC      C24           -31.4870837507      -31.2114520481      -13.3819146047  MEMB      132             0.0000000000
     18627       160  DOPC      H4R           -31.0966211848      -30.1928522248      -13.1579634144  MEMB      132             0.0000000000
     18628       160  DOPC      H4S           -30.6736874065      -31.7807286443      -13.8810071100  MEMB      132             0.0000000000
     18629       160  DOPC      C25           -31.7820024997      -31.9107590934      -12.0436094049  MEMB      132             0.0000000000
     18630       160  DOPC      H5R           -30.8165442193      -32.3490046273      -11.6870542426  MEMB      132             0.0000000000
     18631       160  DOPC      H5S           -32.4752043727      -32.7615684083      -12.2079392933  MEMB      132             0.0000000000
     18632       160  DOPC      C26           -32.2838139884      -30.9987247877      -10.9066755841  MEMB      132             0.0000000000
     18633       160  DOPC      H6R           -33.3587894553      -30.7585774341      -11.0637893423  MEMB      132             0.0000000000
     18634       160  DOPC      H6S           -31.7162604434      -30.0427906540      -10.9229967970  MEMB      132             0.0000000000
     18635       160  DOPC      C27           -32.1005813143      -31.6374322623       -9.5094632997  MEMB      132             0.0000000000
     18636       160  DOPC      H7R           -32.5315730567      -30.9649129376       -8.7360470774  MEMB      132             0.0000000000
     18637       160  DOPC      H7S           -31.0167084268      -31.7391352656       -9.2908526570  MEMB      132             0.0000000000
     18638       160  DOPC      C28           -32.7934096607      -33.0096240943       -9.4210516137  MEMB      132             0.0000000000
     18639       160  DOPC      H8R           -32.4242549692      -33.6584562352      -10.2430218340  MEMB      132             0.0000000000
     18640       160  DOPC      H8S           -33.8564345247      -32.7856012576       -9.6504413176  MEMB      132             0.0000000000
     18641       160  DOPC      C29           -32.6824776872      -33.8027602271       -8.1445369497  MEMB      132             0.0000000000
     18642       160  DOPC      H9R           -31.8870195630      -34.5655601373       -8.1353945462  MEMB      132             0.0000000000
     18643       160  DOPC      C210          -33.4423721446      -33.6674254613       -7.0478244214  MEMB      132             0.0000000000
     18644       160  DOPC      H10R          -33.2901467150      -34.3807767274       -6.2258402670  MEMB      132             0.0000000000
     18645       160  DOPC      C211          -34.5703406720      -32.6924224647       -6.8324554367  MEMB      132             0.0000000000
     18646       160  DOPC      H11R          -35.5322383871      -33.2305084037       -6.6813559448  MEMB      132             0.0000000000
     18647       160  DOPC      H11S          -34.7031316640      -32.0194371725       -7.7080243990  MEMB      132             0.0000000000
     18648       160  DOPC      C212          -34.2846542682      -31.8297564532       -5.5913316545  MEMB      132             0.0000000000
     18649       160  DOPC      H12R          -35.0351428350      -31.0184372784       -5.5271245951  MEMB      132             0.0000000000
     18650       160  DOPC      H12S          -33.2845439764      -31.3458584509       -5.6799096113  MEMB      132             0.0000000000
     18651       160  DOPC      C213          -34.3769496397      -32.6057638482       -4.2756782322  MEMB      132             0.0000000000
     18652       160  DOPC      H13R          -33.6744026292      -33.4483917414       -4.3171466709  MEMB      132             0.0000000000
     18653       160  DOPC      H13S          -35.3878773118      -33.0491632953       -4.1536308708  MEMB      132             0.0000000000
     18654       160  DOPC      C214          -34.0395481881      -31.7289458467       -3.0716695779  MEMB      132             0.0000000000
     18655       160  DOPC      H14R          -34.8666159407      -30.9936629288       -2.9382266117  MEMB      132             0.0000000000
     18656       160  DOPC      H14S          -33.1077379084      -31.1601441413       -3.2850708283  MEMB      132             0.0000000000
     18657       160  DOPC      C215          -33.8717610390      -32.5351081181       -1.7794634183  MEMB      132             0.0000000000
     18658       160  DOPC      H15R          -32.9276167268      -33.1183293539       -1.7879095209  MEMB      132             0.0000000000
     18659       160  DOPC      H15S          -34.7155778852      -33.2583746056       -1.7530503992  MEMB      132             0.0000000000
     18660       160  DOPC      C216          -33.8472600517      -31.6349411375       -0.5387880005  MEMB      132             0.0000000000
     18661       160  DOPC      H16R          -34.6021954325      -30.8261496250       -0.6549215715  MEMB      132             0.0000000000
     18662       160  DOPC      H16S          -32.8385604277      -31.1742864240       -0.4708888550  MEMB      132             0.0000000000
     18663       160  DOPC      C217          -34.0710608621      -32.3352978844        0.7931598114  MEMB      132             0.0000000000
     18664       160  DOPC      H17R          -34.2716761281      -31.5710375401        1.5729760406  MEMB      132             0.0000000000
     18665       160  DOPC      H17S          -33.1172134513      -32.8061408245        1.0898396666  MEMB      132             0.0000000000
     18666       160  DOPC      C218          -35.1823555734      -33.3751175630        0.7801895636  MEMB      132             0.0000000000
     18667       160  DOPC      H18R          -36.1517722263      -32.9772811354        0.4335320160  MEMB      132             0.0000000000
     18668       160  DOPC      H18S          -35.3423997583      -33.7610716640        1.8044264824  MEMB      132             0.0000000000
     18669       160  DOPC      H18T          -34.9175169624      -34.2055308352        0.0952844248  MEMB      132             0.0000000000
     18670       160  DOPC      C33           -38.2244815884      -33.5308281842      -11.5548962011  MEMB      132             0.0000000000
     18671       160  DOPC      H3X           -38.9502255886      -34.2809625140      -11.1581300483  MEMB      132             0.0000000000
     18672       160  DOPC      H3Y           -38.3484032124      -32.6761828030      -10.8769618643  MEMB      132             0.0000000000
     18673       160  DOPC      C34           -36.9223156060      -34.2705686335      -11.0950726204  MEMB      132             0.0000000000
     18674       160  DOPC      H4X           -35.9685843600      -33.9365448429      -11.5028618535  MEMB      132             0.0000000000
     18675       160  DOPC      H4Y           -36.9531792316      -35.3476753415      -11.2754210843  MEMB      132             0.0000000000
     18676       160  DOPC      C35           -36.5307085822      -34.1023521626       -9.6384491753  MEMB      132             0.0000000000
     18677       160  DOPC      H5X           -36.9619525325      -33.1700482153       -9.2117241689  MEMB      132             0.0000000000
     18678       160  DOPC      H5Y           -35.4305181041      -33.9878817381       -9.5407843028  MEMB      132             0.0000000000
     18679       160  DOPC      C36           -36.8519200665      -35.3325375521       -8.8158084815  MEMB      132             0.0000000000
     18680       160  DOPC      H6X           -36.4411516604      -35.0317066518       -7.8286739415  MEMB      132             0.0000000000
     18681       160  DOPC      H6Y           -37.9474703968      -35.4806135837       -8.7736379498  MEMB      132             0.0000000000
     18682       160  DOPC      C37           -36.3468152465      -36.7317706604       -9.2301005249  MEMB      132             0.0000000000
     18683       160  DOPC      H7X           -36.8837491176      -37.0593938066      -10.1512685161  MEMB      132             0.0000000000
     18684       160  DOPC      H7Y           -35.2612852464      -36.7109835237       -9.4631927684  MEMB      132             0.0000000000
     18685       160  DOPC      C38           -36.6466547631      -37.7961533527       -8.1429896061  MEMB      132             0.0000000000
     18686       160  DOPC      H8X           -35.6824645862      -38.2528842504       -7.8406163954  MEMB      132             0.0000000000
     18687       160  DOPC      H8Y           -37.2700804546      -38.6084120664       -8.5793917796  MEMB      132             0.0000000000
     18688       160  DOPC      C39           -37.3143202000      -37.1966926882       -6.9366678048  MEMB      132             0.0000000000
     18689       160  DOPC      H9X           -38.4091226757      -37.0977080540       -6.9752064821  MEMB      132             0.0000000000
     18690       160  DOPC      C310          -36.6294634210      -36.6408281584       -5.9328086657  MEMB      132             0.0000000000
     18691       160  DOPC      H10X          -37.1757236510      -36.1128145391       -5.1453293513  MEMB      132             0.0000000000
     18692       160  DOPC      C311          -35.1272494330      -36.5506186295       -5.8702706590  MEMB      132             0.0000000000
     18693       160  DOPC      H11X          -34.8219962782      -35.6471692272       -5.2996191460  MEMB      132             0.0000000000
     18694       160  DOPC      H11Y          -34.6956091218      -36.4373594212       -6.8912814027  MEMB      132             0.0000000000
     18695       160  DOPC      C312          -34.5045226172      -37.7988296109       -5.2252516181  MEMB      132             0.0000000000
     18696       160  DOPC      H12X          -33.4616025069      -37.9123842725       -5.5988741128  MEMB      132             0.0000000000
     18697       160  DOPC      H12Y          -35.0539159300      -38.7223056413       -5.5230492249  MEMB      132             0.0000000000
     18698       160  DOPC      C313          -34.4771715198      -37.7160511024       -3.6982713865  MEMB      132             0.0000000000
     18699       160  DOPC      H13X          -33.8710475886      -38.5685700371       -3.3170095740  MEMB      132             0.0000000000
     18700       160  DOPC      H13Y          -33.9918611986      -36.7718839176       -3.3660253452  MEMB      132             0.0000000000
     18701       160  DOPC      C314          -35.8628109606      -37.8608236234       -3.0730773432  MEMB      132             0.0000000000
     18702       160  DOPC      H14X          -36.6762417154      -37.7962684685       -3.8143726227  MEMB      132             0.0000000000
     18703       160  DOPC      H14Y          -35.9273667232      -38.9067792281       -2.7460812424  MEMB      132             0.0000000000
     18704       160  DOPC      C315          -36.1819492357      -36.8467121796       -1.9723882356  MEMB      132             0.0000000000
     18705       160  DOPC      H15X          -37.2666192774      -36.5976523117       -2.0363676106  MEMB      132             0.0000000000
     18706       160  DOPC      H15Y          -35.6308198534      -35.8913163108       -2.1250692243  MEMB      132             0.0000000000
     18707       160  DOPC      C316          -35.9345247120      -37.3863167352       -0.5624600068  MEMB      132             0.0000000000
     18708       160  DOPC      H16X          -34.8455566501      -37.5129759621       -0.3900297604  MEMB      132             0.0000000000
     18709       160  DOPC      H16Y          -36.3665781061      -36.6235368430        0.1198682318  MEMB      132             0.0000000000
     18710       160  DOPC      C317          -36.7300923943      -38.6470763146       -0.2428823600  MEMB      132             0.0000000000
     18711       160  DOPC      H17X          -37.7717312087      -38.2886509023       -0.3359878928  MEMB      132             0.0000000000
     18712       160  DOPC      H17Y          -36.5649578802      -39.4094348001       -1.0059368982  MEMB      132             0.0000000000
     18713       160  DOPC      C318          -36.6598607087      -39.3533321721        1.1100729506  MEMB      132             0.0000000000
     18714       160  DOPC      H18X          -35.8887427457      -40.1462057561        1.1156051750  MEMB      132             0.0000000000
     18715       160  DOPC      H18Y          -36.4924484393      -38.6497204116        1.9398992874  MEMB      132             0.0000000000
     18716       160  DOPC      H18Z          -37.6322416699      -39.8565015894        1.2977301129  MEMB      132             0.0000000000
     18717       161  TIP3      OH2           -23.9162738644      -24.7610135974       26.8696869208  TIP3      1               0.0000000000
     18718       161  TIP3      H1            -24.1498386607      -24.3142235746       27.6954558437  TIP3      1               0.0000000000
     18719       161  TIP3      H2            -24.0649823171      -25.6908311912       27.0970510383  TIP3      1               0.0000000000
     18720       162  TIP3      OH2           -23.8867332692      -26.4173894113       29.2833497666  TIP3      2               0.0000000000
     18721       162  TIP3      H1            -23.3004269573      -26.0492511933       29.9594980259  TIP3      2               0.0000000000
     18722       162  TIP3      H2            -24.7082206968      -26.5859481177       29.8150834058  TIP3      2               0.0000000000
     18723       163  TIP3      OH2           -32.1021806161      -26.4666478581       31.4579277994  TIP3      3               0.0000000000
     18724       163  TIP3      H1            -32.0685480302      -27.2041290175       32.0891358682  TIP3      3               0.0000000000
     18725       163  TIP3      H2            -31.2474330629      -26.0168699054       31.6214337949  TIP3      3               0.0000000000
     18726       164  TIP3      OH2           -20.3219737552      -22.0786942311       28.1453411141  TIP3      4               0.0000000000
     18727       164  TIP3      H1            -20.8405248871      -22.4415332531       28.9072741572  TIP3      4               0.0000000000
     18728       164  TIP3      H2            -19.7326470787      -21.5481419731       28.7079091866  TIP3      4               0.0000000000
     18729       165  TIP3      OH2           -31.7502695330      -22.1541328820       30.6365743484  TIP3      5               0.0000000000
     18730       165  TIP3      H1            -31.5345736670      -22.9625225689       30.1513449588  TIP3      5               0.0000000000
     18731       165  TIP3      H2            -30.9144517378      -21.6460932770       30.6392986309  TIP3      5               0.0000000000
     18732       166  TIP3      OH2           -34.7891552788      -27.2027700328       25.8544232729  TIP3      6               0.0000000000
     18733       166  TIP3      H1            -34.0882061093      -26.9298164668       26.4910027634  TIP3      6               0.0000000000
     18734       166  TIP3      H2            -34.7727976480      -28.1727507745       26.0305385307  TIP3      6               0.0000000000
     18735       167  TIP3      OH2           -33.2077657987      -26.5969343091       27.8882862257  TIP3      7               0.0000000000
     18736       167  TIP3      H1            -33.5135698303      -26.3585904903       28.8020057951  TIP3      7               0.0000000000
     18737       167  TIP3      H2            -32.8906749958      -25.7101498677       27.6139264673  TIP3      7               0.0000000000
     18738       168  TIP3      OH2           -23.6849494151      -17.7903588057       28.9600953568  TIP3      8               0.0000000000
     18739       168  TIP3      H1            -23.0684655303      -18.4003762651       28.4904113572  TIP3      8               0.0000000000
     18740       168  TIP3      H2            -23.9006457432      -18.3451982524       29.7289089475  TIP3      8               0.0000000000
     18741       169  TIP3      OH2           -25.9607433382      -23.7374758008       30.7645665279  TIP3      9               0.0000000000
     18742       169  TIP3      H1            -25.8967762128      -24.7109794823       30.9140867524  TIP3      9               0.0000000000
     18743       169  TIP3      H2            -25.1909124513      -23.3957499040       31.2650874855  TIP3      9               0.0000000000
     18744       170  TIP3      OH2           -17.2828456920      -32.0695911972       30.9126453889  TIP3      10              0.0000000000
     18745       170  TIP3      H1            -17.2095457117      -31.4207292904       31.6370595154  TIP3      10              0.0000000000
     18746       170  TIP3      H2            -16.5241972037      -31.7860636318       30.3734905281  TIP3      10              0.0000000000
     18747       171  TIP3      OH2           -22.6520322064      -29.4406759855       31.2434026268  TIP3      11              0.0000000000
     18748       171  TIP3      H1            -22.2596288525      -30.3175930315       31.1337465151  TIP3      11              0.0000000000
     18749       171  TIP3      H2            -22.5118530170      -29.0247563656       30.3660730375  TIP3      11              0.0000000000
     18750       172  TIP3      OH2           -29.4914140914      -31.0183525490       27.9020250281  TIP3      12              0.0000000000
     18751       172  TIP3      H1            -29.3910664126      -30.0872484846       27.6297894729  TIP3      12              0.0000000000
     18752       172  TIP3      H2            -30.1668076475      -31.3422201395       27.2776023009  TIP3      12              0.0000000000
     18753       173  TIP3      OH2           -22.0121012479      -30.4909888419       27.0024918038  TIP3      13              0.0000000000
     18754       173  TIP3      H1            -21.4213792679      -31.0304053308       27.5576250365  TIP3      13              0.0000000000
     18755       173  TIP3      H2            -21.5384662065      -29.6456551344       27.0155425030  TIP3      13              0.0000000000
     18756       174  TIP3      OH2           -32.8562617596      -29.2265297005       28.7495437281  TIP3      14              0.0000000000
     18757       174  TIP3      H1            -32.0416995518      -29.3032885560       29.2876731276  TIP3      14              0.0000000000
     18758       174  TIP3      H2            -32.8136575046      -28.2682712924       28.5292249947  TIP3      14              0.0000000000
     18759       175  TIP3      OH2           -27.2304685156      -27.2527100591       28.0929096603  TIP3      15              0.0000000000
     18760       175  TIP3      H1            -26.8725086745      -26.8070148296       28.8877496420  TIP3      15              0.0000000000
     18761       175  TIP3      H2            -28.0732755905      -27.5634745487       28.5023310925  TIP3      15              0.0000000000
     18762       176  TIP3      OH2           -17.2602297205      -30.6446949908       33.5860658341  TIP3      16              0.0000000000
     18763       176  TIP3      H1            -17.7130564525      -29.8380099512       33.2542571354  TIP3      16              0.0000000000
     18764       176  TIP3      H2            -17.0502878743      -30.3322935462       34.4807695927  TIP3      16              0.0000000000
     18765       177  TIP3      OH2           -30.4251069910      -32.1413082687       32.4575678085  TIP3      17              0.0000000000
     18766       177  TIP3      H1            -30.7183734834      -31.6589171885       31.6499272719  TIP3      17              0.0000000000
     18767       177  TIP3      H2            -31.0189441774      -31.7052531858       33.1073273310  TIP3      17              0.0000000000
     18768       178  TIP3      OH2           -23.2499569110      -22.0410803805       25.2070892905  TIP3      18              0.0000000000
     18769       178  TIP3      H1            -23.6876713409      -22.1852513573       24.3392954575  TIP3      18              0.0000000000
     18770       178  TIP3      H2            -23.8307068198      -21.3287487337       25.5735915301  TIP3      18              0.0000000000
     18771       179  TIP3      OH2           -27.7722727028      -24.1530410086       33.0697497437  TIP3      19              0.0000000000
     18772       179  TIP3      H1            -28.6797696985      -23.7641792997       33.0906173224  TIP3      19              0.0000000000
     18773       179  TIP3      H2            -27.4177256003      -23.7386553460       32.2709520093  TIP3      19              0.0000000000
     18774       180  TIP3      OH2           -19.7806366143      -31.4552015530       28.2293186098  TIP3      20              0.0000000000
     18775       180  TIP3      H1            -20.3794290510      -31.7947422715       28.9195280595  TIP3      20              0.0000000000
     18776       180  TIP3      H2            -18.9763817440      -31.4363551360       28.7674778757  TIP3      20              0.0000000000
     18777       181  TIP3      OH2           -30.8746085023      -30.4159247141       30.4341791240  TIP3      21              0.0000000000
     18778       181  TIP3      H1            -30.4975705938      -29.5081442315       30.4550404081  TIP3      21              0.0000000000
     18779       181  TIP3      H2            -30.4281414673      -30.7754190230       29.6412166567  TIP3      21              0.0000000000
     18780       182  TIP3      OH2           -29.8083759420      -22.4099507056       33.0506367764  TIP3      22              0.0000000000
     18781       182  TIP3      H1            -29.8855364957      -21.5852113092       32.5234861886  TIP3      22              0.0000000000
     18782       182  TIP3      H2            -30.5115935378      -22.2215351094       33.7112197727  TIP3      22              0.0000000000
     18783       183  TIP3      OH2           -33.4256618770      -21.9088612081       23.4497409620  TIP3      23              0.0000000000
     18784       183  TIP3      H1            -33.7611674197      -22.4185276863       22.6875613819  TIP3      23              0.0000000000
     18785       183  TIP3      H2            -33.5631182178      -22.4842784674       24.2236977449  TIP3      23              0.0000000000
     18786       184  TIP3      OH2           -19.6145793215      -20.9064676374       30.9243674231  TIP3      24              0.0000000000
     18787       184  TIP3      H1            -20.4646440252      -21.0728256559       31.3715680638  TIP3      24              0.0000000000
     18788       184  TIP3      H2            -19.8011519517      -20.0292084511       30.5640079248  TIP3      24              0.0000000000
     18789       185  TIP3      OH2           -19.3773864884      -32.8582764467       32.6930062575  TIP3      25              0.0000000000
     18790       185  TIP3      H1            -20.1550817546      -32.7482370903       32.1187036325  TIP3      25              0.0000000000
     18791       185  TIP3      H2            -18.6462589567      -32.8514513137       32.0385551938  TIP3      25              0.0000000000
     18792       186  TIP3      OH2           -26.7730532902      -34.3253108784       28.9154811454  TIP3      26              0.0000000000
     18793       186  TIP3      H1            -26.3042665732      -34.8088360169       29.6114150155  TIP3      26              0.0000000000
     18794       186  TIP3      H2            -27.4724329287      -33.8933329525       29.4514963936  TIP3      26              0.0000000000
     18795       187  TIP3      OH2           -21.9938324302      -19.1317935778       27.4070217294  TIP3      27              0.0000000000
     18796       187  TIP3      H1            -21.4704153576      -19.8044196245       26.9215799449  TIP3      27              0.0000000000
     18797       187  TIP3      H2            -21.4190393784      -18.3475436269       27.2704989085  TIP3      27              0.0000000000
     18798       188  TIP3      OH2           -20.0684438294      -20.4165247262       26.0116739919  TIP3      28              0.0000000000
     18799       188  TIP3      H1            -20.1328111086      -21.1116335629       25.3459187629  TIP3      28              0.0000000000
     18800       188  TIP3      H2            -19.8955234114      -20.9430413644       26.8243458876  TIP3      28              0.0000000000
     18801       189  TIP3      OH2           -19.2576245661      -22.7013707123       34.5466707153  TIP3      29              0.0000000000
     18802       189  TIP3      H1            -19.3090809177      -23.4867774415       33.9562712842  TIP3      29              0.0000000000
     18803       189  TIP3      H2            -19.9041667796      -22.0960071119       34.1128536247  TIP3      29              0.0000000000
     18804       190  TIP3      OH2           -24.2079196671      -25.5103907215       23.7839707575  TIP3      30              0.0000000000
     18805       190  TIP3      H1            -24.8745405933      -24.9067346515       24.1803831398  TIP3      30              0.0000000000
     18806       190  TIP3      H2            -23.8544744069      -24.9112454330       23.1143985608  TIP3      30              0.0000000000
     18807       191  TIP3      OH2           -17.1579597385      -26.2951988564       32.6539255399  TIP3      31              0.0000000000
     18808       191  TIP3      H1            -17.9300577537      -25.6911220137       32.5882754805  TIP3      31              0.0000000000
     18809       191  TIP3      H2            -16.6130397061      -25.9858822090       31.9056991659  TIP3      31              0.0000000000
     18810       192  TIP3      OH2           -21.0644484368      -26.4576958160       25.4066697846  TIP3      32              0.0000000000
     18811       192  TIP3      H1            -21.8340295215      -26.9284286246       25.7972402540  TIP3      32              0.0000000000
     18812       192  TIP3      H2            -20.2958596884      -26.9426255837       25.7665495848  TIP3      32              0.0000000000
     18813       193  TIP3      OH2           -20.9085411679      -27.0686242554       34.4449135931  TIP3      33              0.0000000000
     18814       193  TIP3      H1            -21.0215238289      -26.1073833426       34.5114878595  TIP3      33              0.0000000000
     18815       193  TIP3      H2            -21.6839469649      -27.2354589897       33.8589194726  TIP3      33              0.0000000000
     18816       194  TIP3      OH2           -29.3107423009      -25.1281614199       27.1475813869  TIP3      34              0.0000000000
     18817       194  TIP3      H1            -30.1439523066      -25.2491680220       26.6669140138  TIP3      34              0.0000000000
     18818       194  TIP3      H2            -29.2865744261      -25.9374406084       27.6974788342  TIP3      34              0.0000000000
     18819       195  TIP3      OH2           -27.9347312644      -22.0012994656       29.4059650784  TIP3      35              0.0000000000
     18820       195  TIP3      H1            -27.4315018934      -22.5159867889       28.7543125353  TIP3      35              0.0000000000
     18821       195  TIP3      H2            -27.4134917840      -22.1771162842       30.2058605326  TIP3      35              0.0000000000
     18822       196  TIP3      OH2           -29.4352033972      -25.6846674596       31.4376015249  TIP3      36              0.0000000000
     18823       196  TIP3      H1            -29.4824424451      -26.2528555175       30.6354897615  TIP3      36              0.0000000000
     18824       196  TIP3      H2            -28.4756086928      -25.6572854118       31.5980711818  TIP3      36              0.0000000000
     18825       197  TIP3      OH2           -23.3867672879      -20.5534536709       31.1070165772  TIP3      37              0.0000000000
     18826       197  TIP3      H1            -22.9717353477      -20.3838892750       31.9768259673  TIP3      37              0.0000000000
     18827       197  TIP3      H2            -23.5721101592      -21.5034094956       31.2420092548  TIP3      37              0.0000000000
     18828       198  TIP3      OH2           -28.2005516585      -21.7693581679       35.2783100254  TIP3      38              0.0000000000
     18829       198  TIP3      H1            -28.9539095509      -21.3232351594       35.7196714626  TIP3      38              0.0000000000
     18830       198  TIP3      H2            -28.6139205703      -22.0269396163       34.4253260183  TIP3      38              0.0000000000
     18831       199  TIP3      OH2           -30.7232397659      -25.8973762952       34.9901279275  TIP3      39              0.0000000000
     18832       199  TIP3      H1            -30.9021304849      -25.3874118021       35.8150559159  TIP3      39              0.0000000000
     18833       199  TIP3      H2            -31.3602676583      -25.4686432737       34.4108519186  TIP3      39              0.0000000000
     18834       200  TIP3      OH2           -24.6938591733      -19.9934537554       26.1975210805  TIP3      40              0.0000000000
     18835       200  TIP3      H1            -24.4718572723      -19.7416568844       27.1027713154  TIP3      40              0.0000000000
     18836       200  TIP3      H2            -25.2188632503      -19.2213612518       25.9529530540  TIP3      40              0.0000000000
     18837       201  TIP3      OH2           -29.6626376725      -19.9514006342       36.8222089737  TIP3      41              0.0000000000
     18838       201  TIP3      H1            -29.2909462271      -19.4391518285       36.0643587691  TIP3      41              0.0000000000
     18839       201  TIP3      H2            -30.6040489930      -19.9732338445       36.5704386921  TIP3      41              0.0000000000
     18840       202  TIP3      OH2           -18.4697352876      -34.4404180470       22.8512687836  TIP3      42              0.0000000000
     18841       202  TIP3      H1            -19.3198624794      -34.9063578241       22.9304335962  TIP3      42              0.0000000000
     18842       202  TIP3      H2            -18.7247176858      -33.7235433384       22.2590902230  TIP3      42              0.0000000000
     18843       203  TIP3      OH2           -30.1384774897      -26.1373467387       24.4490558953  TIP3      43              0.0000000000
     18844       203  TIP3      H1            -30.8218582189      -25.4992592902       24.1720565992  TIP3      43              0.0000000000
     18845       203  TIP3      H2            -30.6559303700      -26.8973645502       24.7506411804  TIP3      43              0.0000000000
     18846       204  TIP3      OH2           -33.8602715434      -23.3543555780       34.0363854944  TIP3      44              0.0000000000
     18847       204  TIP3      H1            -34.4534856641      -22.8141270797       33.4890692408  TIP3      44              0.0000000000
     18848       204  TIP3      H2            -34.1270213676      -24.2357777279       33.6981532325  TIP3      44              0.0000000000
     18849       205  TIP3      OH2           -34.1112613742      -20.6895913720       29.4864951533  TIP3      45              0.0000000000
     18850       205  TIP3      H1            -33.4489581549      -20.8902101723       30.1848647520  TIP3      45              0.0000000000
     18851       205  TIP3      H2            -34.9373321724      -20.8091580416       30.0011960308  TIP3      45              0.0000000000
     18852       206  TIP3      OH2           -16.4541354459      -20.1133507960       35.9442731087  TIP3      46              0.0000000000
     18853       206  TIP3      H1            -16.2789668716      -20.9861567766       36.3399804591  TIP3      46              0.0000000000
     18854       206  TIP3      H2            -17.3755028614      -19.9890373718       36.2655509898  TIP3      46              0.0000000000
     18855       207  TIP3      OH2           -25.8077032615      -20.5656032088       34.8283082087  TIP3      47              0.0000000000
     18856       207  TIP3      H1            -25.7563970970      -19.7634870661       35.3978472451  TIP3      47              0.0000000000
     18857       207  TIP3      H2            -26.6646318198      -20.9752723492       35.0506256154  TIP3      47              0.0000000000
     18858       208  TIP3      OH2           -25.1069079125      -16.7398052373       24.1490615148  TIP3      48              0.0000000000
     18859       208  TIP3      H1            -24.1835297872      -17.0286554818       24.0215190558  TIP3      48              0.0000000000
     18860       208  TIP3      H2            -24.9584901907      -15.9345569991       24.6898569060  TIP3      48              0.0000000000
     18861       209  TIP3      OH2           -31.5676672746      -18.0173870936       26.4823331476  TIP3      49              0.0000000000
     18862       209  TIP3      H1            -30.9684776535      -18.2933855339       27.2159515210  TIP3      49              0.0000000000
     18863       209  TIP3      H2            -32.3790604940      -17.9869893722       27.0372975579  TIP3      49              0.0000000000
     18864       210  TIP3      OH2           -22.2865359275      -17.5471595681       24.7350884394  TIP3      50              0.0000000000
     18865       210  TIP3      H1            -22.7013609315      -18.4270137256       24.7710093601  TIP3      50              0.0000000000
     18866       210  TIP3      H2            -21.4338097797      -17.7649921691       25.1449409089  TIP3      50              0.0000000000
     18867       211  TIP3      OH2           -19.3260472203      -28.6539928694       36.3815173765  TIP3      51              0.0000000000
     18868       211  TIP3      H1            -19.9405215278      -28.1263996067       35.8306413723  TIP3      51              0.0000000000
     18869       211  TIP3      H2            -19.4640690904      -29.5460010034       35.9828963252  TIP3      51              0.0000000000
     18870       212  TIP3      OH2           -31.7225981891      -21.9647740419       34.8357645119  TIP3      52              0.0000000000
     18871       212  TIP3      H1            -32.0425852668      -22.0324504508       35.7559384438  TIP3      52              0.0000000000
     18872       212  TIP3      H2            -32.3984028283      -22.5124268276       34.3654369884  TIP3      52              0.0000000000
     18873       213  TIP3      OH2           -29.3307300767      -33.5865934726       30.4022257664  TIP3      53              0.0000000000
     18874       213  TIP3      H1            -30.2159147947      -33.5973078140       30.0005244073  TIP3      53              0.0000000000
     18875       213  TIP3      H2            -29.5664474884      -33.1233770330       31.2306631702  TIP3      53              0.0000000000
     18876       214  TIP3      OH2           -24.6676124367      -34.3140644616       34.1025335823  TIP3      54              0.0000000000
     18877       214  TIP3      H1            -24.8010994232      -33.9389178380       34.9781911750  TIP3      54              0.0000000000
     18878       214  TIP3      H2            -25.5925239903      -34.3550227462       33.7711081167  TIP3      54              0.0000000000
     18879       215  TIP3      OH2           -21.9503949298      -29.7641442932       34.6920238090  TIP3      55              0.0000000000
     18880       215  TIP3      H1            -22.6921183422      -30.0843953609       35.2665573959  TIP3      55              0.0000000000
     18881       215  TIP3      H2            -21.7896501925      -28.8591322803       35.0142681128  TIP3      55              0.0000000000
     18882       216  TIP3      OH2           -24.5341240598      -31.3842432564       21.3163286586  TIP3      56              0.0000000000
     18883       216  TIP3      H1            -24.7182636738      -31.7773555500       22.1837545807  TIP3      56              0.0000000000
     18884       216  TIP3      H2            -25.1692636640      -31.8431322842       20.7592901256  TIP3      56              0.0000000000
     18885       217  TIP3      OH2           -29.0999028106      -28.6450801968       32.1501117800  TIP3      57              0.0000000000
     18886       217  TIP3      H1            -30.0475172090      -28.5007293925       32.3157477693  TIP3      57              0.0000000000
     18887       217  TIP3      H2            -28.9640220597      -28.1948552679       31.2899049196  TIP3      57              0.0000000000
     18888       218  TIP3      OH2           -29.4274598578      -28.7622842719       26.1018948733  TIP3      58              0.0000000000
     18889       218  TIP3      H1            -30.3720205317      -28.6973056351       25.8601770321  TIP3      58              0.0000000000
     18890       218  TIP3      H2            -29.0971492662      -29.2873558592       25.3334476334  TIP3      58              0.0000000000
     18891       219  TIP3      OH2           -23.6205666623      -27.4779536405       25.6488185383  TIP3      59              0.0000000000
     18892       219  TIP3      H1            -23.8205448309      -26.8239115378       24.9405747824  TIP3      59              0.0000000000
     18893       219  TIP3      H2            -23.3219516949      -28.2283310664       25.0892554974  TIP3      59              0.0000000000
     18894       220  TIP3      OH2           -24.9196999974      -27.8257962973       36.9981244702  TIP3      60              0.0000000000
     18895       220  TIP3      H1            -25.3769962797      -28.5646980724       37.4573015130  TIP3      60              0.0000000000
     18896       220  TIP3      H2            -24.3018319981      -27.5707251188       37.7049826768  TIP3      60              0.0000000000
     18897       221  TIP3      OH2           -22.2352808052      -28.4764463994       28.7829800781  TIP3      61              0.0000000000
     18898       221  TIP3      H1            -22.9497486171      -27.8014447557       28.8813210895  TIP3      61              0.0000000000
     18899       221  TIP3      H2            -22.7498467482      -29.2159046086       28.4242876378  TIP3      61              0.0000000000
     18900       222  TIP3      OH2           -31.5977420153      -28.7675446467       33.1341133987  TIP3      62              0.0000000000
     18901       222  TIP3      H1            -31.3767691513      -28.5693448195       34.0542987453  TIP3      62              0.0000000000
     18902       222  TIP3      H2            -32.1044447842      -29.5973600869       33.1864123596  TIP3      62              0.0000000000
     18903       223  TIP3      OH2           -28.2568986581      -31.2408556283       20.7368539486  TIP3      63              0.0000000000
     18904       223  TIP3      H1            -28.0875731658      -32.1292653878       21.1033579098  TIP3      63              0.0000000000
     18905       223  TIP3      H2            -27.9876117418      -31.4117817926       19.8359611989  TIP3      63              0.0000000000
     18906       224  TIP3      OH2           -34.2770810975      -32.7938991030       27.1013703787  TIP3      64              0.0000000000
     18907       224  TIP3      H1            -34.3672391823      -32.6170789329       28.0771303133  TIP3      64              0.0000000000
     18908       224  TIP3      H2            -33.7546803537      -32.0113344569       26.8859360861  TIP3      64              0.0000000000
     18909       225  TIP3      OH2           -23.4541796776      -27.0048069584       33.2640052116  TIP3      65              0.0000000000
     18910       225  TIP3      H1            -23.1224050440      -27.4192440876       32.4464142923  TIP3      65              0.0000000000
     18911       225  TIP3      H2            -24.3755117211      -27.3288543816       33.3306903051  TIP3      65              0.0000000000
     18912       226  TIP3      OH2           -26.7311368156      -31.1682674551       27.2674111983  TIP3      66              0.0000000000
     18913       226  TIP3      H1            -27.5803290072      -31.3488910155       27.7271554573  TIP3      66              0.0000000000
     18914       226  TIP3      H2            -26.2958003801      -30.5397769972       27.9059335883  TIP3      66              0.0000000000
     18915       227  TIP3      OH2           -31.9807352177      -29.4290811329       25.3612060618  TIP3      67              0.0000000000
     18916       227  TIP3      H1            -32.0657585609      -29.4357225927       26.3298585840  TIP3      67              0.0000000000
     18917       227  TIP3      H2            -31.7078276611      -30.3495901403       25.1683016976  TIP3      67              0.0000000000
     18918       228  TIP3      OH2           -28.6064828489      -29.7133906329       23.8122458478  TIP3      68              0.0000000000
     18919       228  TIP3      H1            -27.7413745811      -29.9409131467       23.4428003351  TIP3      68              0.0000000000
     18920       228  TIP3      H2            -28.9469144154      -29.0977798953       23.1103279168  TIP3      68              0.0000000000
     18921       229  TIP3      OH2           -21.9628729706      -32.3543699447       30.6872454453  TIP3      69              0.0000000000
     18922       229  TIP3      H1            -22.6257486370      -32.3377598783       31.4157411889  TIP3      69              0.0000000000
     18923       229  TIP3      H2            -22.4984578388      -32.6342798877       29.9123464619  TIP3      69              0.0000000000
     18924       230  TIP3      OH2           -29.1843819185      -28.0941925271       21.9370257597  TIP3      70              0.0000000000
     18925       230  TIP3      H1            -29.7817621128      -28.1841065994       21.1549556605  TIP3      70              0.0000000000
     18926       230  TIP3      H2            -28.4117673108      -27.7631800802       21.4335114781  TIP3      70              0.0000000000
     18927       231  TIP3      OH2           -19.5432479000      -16.3281781713       37.4034616478  TIP3      71              0.0000000000
     18928       231  TIP3      H1            -19.4232932744      -16.4360865577       36.4474877929  TIP3      71              0.0000000000
     18929       231  TIP3      H2            -18.8338011548      -15.7014466159       37.6349477016  TIP3      71              0.0000000000
     18930       232  TIP3      OH2           -31.5205402241      -24.1309011050       36.9370778169  TIP3      72              0.0000000000
     18931       232  TIP3      H1            -30.9347600819      -23.7619059191       37.6386795017  TIP3      72              0.0000000000
     18932       232  TIP3      H2            -32.4427707031      -23.9270748289       37.2343428616  TIP3      72              0.0000000000
     18933       233  TIP3      OH2           -25.3872735770      -29.4028315006       28.8315106872  TIP3      73              0.0000000000
     18934       233  TIP3      H1            -25.1336627325      -29.9500783920       29.5946073953  TIP3      73              0.0000000000
     18935       233  TIP3      H2            -25.9565760452      -28.7380486260       29.2665490486  TIP3      73              0.0000000000
     18936       234  TIP3      OH2           -31.1411537605      -32.2351849879       25.8292274218  TIP3      74              0.0000000000
     18937       234  TIP3      H1            -31.4482972758      -33.0932294841       26.2027326897  TIP3      74              0.0000000000
     18938       234  TIP3      H2            -30.3708690591      -32.5253349459       25.3101342842  TIP3      74              0.0000000000
     18939       235  TIP3      OH2           -27.0223357360      -30.1097043009       31.4926135653  TIP3      75              0.0000000000
     18940       235  TIP3      H1            -27.8811624080      -29.6293240190       31.5661530250  TIP3      75              0.0000000000
     18941       235  TIP3      H2            -26.4145333469      -29.3553538282       31.6099087116  TIP3      75              0.0000000000
     18942       236  TIP3      OH2           -26.2974728304      -23.9507987099       24.3489793887  TIP3      76              0.0000000000
     18943       236  TIP3      H1            -26.9997289002      -24.2913669996       23.7709631327  TIP3      76              0.0000000000
     18944       236  TIP3      H2            -26.7632061243      -23.6047273049       25.1466834903  TIP3      76              0.0000000000
     18945       237  TIP3      OH2           -18.9612172067      -24.3478752137       32.5367041500  TIP3      77              0.0000000000
     18946       237  TIP3      H1            -18.2356381461      -23.8201299156       32.1541433161  TIP3      77              0.0000000000
     18947       237  TIP3      H2            -19.6991815798      -24.1231547131       31.9226159401  TIP3      77              0.0000000000
     18948       238  TIP3      OH2           -25.1719839567      -23.5559063905       35.0971578179  TIP3      78              0.0000000000
     18949       238  TIP3      H1            -25.2071993905      -24.0495150271       35.9238102931  TIP3      78              0.0000000000
     18950       238  TIP3      H2            -25.1025633102      -22.6276800209       35.3967437317  TIP3      78              0.0000000000
     18951       239  TIP3      OH2           -22.3016998401      -28.6166624280       23.5775297107  TIP3      79              0.0000000000
     18952       239  TIP3      H1            -21.4416145992      -28.6022851229       24.0339057623  TIP3      79              0.0000000000
     18953       239  TIP3      H2            -22.0355786746      -28.4184720210       22.6769342513  TIP3      79              0.0000000000
     18954       240  TIP3      OH2           -31.5468257409      -24.6299769756       28.9843266373  TIP3      80              0.0000000000
     18955       240  TIP3      H1            -30.6909766854      -24.3738952751       28.6042571310  TIP3      80              0.0000000000
     18956       240  TIP3      H2            -31.3690450410      -25.5251220912       29.3536021136  TIP3      80              0.0000000000
     18957       241  TIP3      OH2           -24.5104155118      -22.1704921244       22.8868067396  TIP3      81              0.0000000000
     18958       241  TIP3      H1            -24.7883109339      -21.2291189410       23.0360542503  TIP3      81              0.0000000000
     18959       241  TIP3      H2            -25.3199543460      -22.6626311858       23.1054079780  TIP3      81              0.0000000000
     18960       242  TIP3      OH2           -35.1938672231      -26.1475346063       36.0588587501  TIP3      82              0.0000000000
     18961       242  TIP3      H1            -34.3152771736      -26.5682931040       36.0503537008  TIP3      82              0.0000000000
     18962       242  TIP3      H2            -35.4043856903      -26.0884214187       35.1040265394  TIP3      82              0.0000000000
     18963       243  TIP3      OH2           -27.1667194338      -26.3839295583       36.9259359668  TIP3      83              0.0000000000
     18964       243  TIP3      H1            -27.6943524345      -26.8611666108       36.2503055914  TIP3      83              0.0000000000
     18965       243  TIP3      H2            -26.2552417731      -26.6255610877       36.6470262754  TIP3      83              0.0000000000
     18966       244  TIP3      OH2           -23.3139610743      -21.5536202763       35.6698652315  TIP3      84              0.0000000000
     18967       244  TIP3      H1            -23.2492197222      -21.5273887716       34.6880403769  TIP3      84              0.0000000000
     18968       244  TIP3      H2            -23.0258434237      -20.6404687649       35.8391749401  TIP3      84              0.0000000000
     18969       245  TIP3      OH2           -17.1613540245      -28.8329547052       23.5549429870  TIP3      85              0.0000000000
     18970       245  TIP3      H1            -17.5457068356      -29.1855793163       22.7393083962  TIP3      85              0.0000000000
     18971       245  TIP3      H2            -17.0843156241      -27.8833214939       23.3299547018  TIP3      85              0.0000000000
     18972       246  TIP3      OH2           -16.9494910840      -22.8419143980       35.9204966167  TIP3      86              0.0000000000
     18973       246  TIP3      H1            -17.8989013865      -22.6695170412       35.6947144966  TIP3      86              0.0000000000
     18974       246  TIP3      H2            -16.6605690131      -23.2541774170       35.0841327888  TIP3      86              0.0000000000
     18975       247  TIP3      OH2           -18.5847353088      -20.4171652092       22.6540864361  TIP3      87              0.0000000000
     18976       247  TIP3      H1            -19.4773320911      -20.0970110501       22.8156641155  TIP3      87              0.0000000000
     18977       247  TIP3      H2            -18.4603429824      -19.8648063117       21.8479619044  TIP3      87              0.0000000000
     18978       248  TIP3      OH2           -21.3801045198      -26.6129593771       31.3875212402  TIP3      88              0.0000000000
     18979       248  TIP3      H1            -21.3950810698      -25.7045031415       31.7551467620  TIP3      88              0.0000000000
     18980       248  TIP3      H2            -21.1780116407      -26.3664238557       30.4748875101  TIP3      88              0.0000000000
     18981       249  TIP3      OH2           -29.0239866478      -20.6165287413       26.5367648078  TIP3      89              0.0000000000
     18982       249  TIP3      H1            -28.7516274247      -20.4018738549       27.4510451160  TIP3      89              0.0000000000
     18983       249  TIP3      H2            -29.9731497945      -20.4409646678       26.6340939719  TIP3      89              0.0000000000
     18984       250  TIP3      OH2           -33.0510727925      -26.2904953109       22.0050551603  TIP3      90              0.0000000000
     18985       250  TIP3      H1            -32.2133326060      -25.9551966811       22.3849741357  TIP3      90              0.0000000000
     18986       250  TIP3      H2            -32.8023938152      -26.4559837882       21.0774629178  TIP3      90              0.0000000000
     18987       251  TIP3      OH2           -27.7700490779      -23.0171512576       26.5487408326  TIP3      91              0.0000000000
     18988       251  TIP3      H1            -28.2491797036      -22.1550182492       26.5040699041  TIP3      91              0.0000000000
     18989       251  TIP3      H2            -28.4431562550      -23.6715440364       26.8612772819  TIP3      91              0.0000000000
     18990       252  TIP3      OH2           -26.7194265854      -19.4041009043       32.3805518628  TIP3      92              0.0000000000
     18991       252  TIP3      H1            -26.1936037491      -18.5986115788       32.4215763397  TIP3      92              0.0000000000
     18992       252  TIP3      H2            -26.2109871855      -19.9596695600       33.0052398486  TIP3      92              0.0000000000
     18993       253  TIP3      OH2           -28.6484908477      -18.0298987429       25.6001052349  TIP3      93              0.0000000000
     18994       253  TIP3      H1            -29.5616249239      -18.3180391633       25.7279745744  TIP3      93              0.0000000000
     18995       253  TIP3      H2            -28.4726360501      -17.6447103182       26.4783994912  TIP3      93              0.0000000000
     18996       254  TIP3      OH2           -23.8812962385      -22.8591754692       32.5640973586  TIP3      94              0.0000000000
     18997       254  TIP3      H1            -24.1198527737      -23.3704681637       33.3709251086  TIP3      94              0.0000000000
     18998       254  TIP3      H2            -23.0288349352      -23.2523818423       32.3094647929  TIP3      94              0.0000000000
     18999       255  TIP3      OH2           -21.1534594041      -22.2098709574       22.0249621258  TIP3      95              0.0000000000
     19000       255  TIP3      H1            -21.5033895228      -22.1825515859       22.9273586705  TIP3      95              0.0000000000
     19001       255  TIP3      H2            -21.9321784138      -22.4838096866       21.5073088517  TIP3      95              0.0000000000
     19002       256  TIP3      OH2           -20.4155349685      -18.0268841388       34.9908125882  TIP3      96              0.0000000000
     19003       256  TIP3      H1            -20.8307920562      -18.8649786720       34.6878458079  TIP3      96              0.0000000000
     19004       256  TIP3      H2            -20.5359109828      -17.5170359581       34.1666019566  TIP3      96              0.0000000000
     19005       257  TIP3      OH2           -32.3083538413      -31.3805132123       34.3259171962  TIP3      97              0.0000000000
     19006       257  TIP3      H1            -32.8901347972      -31.0093476494       35.0032091142  TIP3      97              0.0000000000
     19007       257  TIP3      H2            -32.4622587890      -32.3367718509       34.4609295753  TIP3      97              0.0000000000
     19008       258  TIP3      OH2           -20.3103510056      -23.7596041891       24.0377223745  TIP3      98              0.0000000000
     19009       258  TIP3      H1            -20.2100190649      -24.6923827242       23.7791578954  TIP3      98              0.0000000000
     19010       258  TIP3      H2            -20.0160924362      -23.2961065078       23.2254795736  TIP3      98              0.0000000000
     19011       259  TIP3      OH2           -33.0731784619      -19.8938817127       32.3330433004  TIP3      99              0.0000000000
     19012       259  TIP3      H1            -32.0927951128      -19.9073511347       32.3031140653  TIP3      99              0.0000000000
     19013       259  TIP3      H2            -33.2515188888      -19.8130221532       33.2872971134  TIP3      99              0.0000000000
     19014       260  TIP3      OH2           -31.3728145377      -24.0614012356       23.0114232998  TIP3      100             0.0000000000
     19015       260  TIP3      H1            -31.7276683053      -23.7640032712       23.8774487578  TIP3      100             0.0000000000
     19016       260  TIP3      H2            -30.9030232121      -23.2905821194       22.6772160240  TIP3      100             0.0000000000
     19017       261  TIP3      OH2           -23.5832439936      -31.9143153758       32.8246072911  TIP3      101             0.0000000000
     19018       261  TIP3      H1            -23.2273080596      -31.1749720040       33.3507585779  TIP3      101             0.0000000000
     19019       261  TIP3      H2            -23.9188201392      -32.5530389218       33.4809306397  TIP3      101             0.0000000000
     19020       262  TIP3      OH2           -23.4762856324      -31.3370123386       25.0023618177  TIP3      102             0.0000000000
     19021       262  TIP3      H1            -22.7959445635      -31.0773308382       24.3642339996  TIP3      102             0.0000000000
     19022       262  TIP3      H2            -22.9647694644      -31.2575895697       25.8434147453  TIP3      102             0.0000000000
     19023       263  TIP3      OH2           -25.0874916483      -19.5709733492       22.8698428287  TIP3      103             0.0000000000
     19024       263  TIP3      H1            -25.9285094724      -19.1056414568       23.0474360214  TIP3      103             0.0000000000
     19025       263  TIP3      H2            -24.8732904645      -19.3576112686       21.9561872993  TIP3      103             0.0000000000
     19026       264  TIP3      OH2           -26.0722429271      -29.7389670454       24.9582933145  TIP3      104             0.0000000000
     19027       264  TIP3      H1            -25.1043672141      -29.8092485363       25.0171592760  TIP3      104             0.0000000000
     19028       264  TIP3      H2            -26.3808831762      -30.2438393296       25.7426879509  TIP3      104             0.0000000000
     19029       265  TIP3      OH2           -25.2408950508      -28.8200553772       34.4200805605  TIP3      105             0.0000000000
     19030       265  TIP3      H1            -25.3607475866      -28.2930058218       35.2384074385  TIP3      105             0.0000000000
     19031       265  TIP3      H2            -24.4257992895      -29.2962838571       34.6122185197  TIP3      105             0.0000000000
     19032       266  TIP3      OH2           -25.1161720942      -33.1258957131       26.2679084435  TIP3      106             0.0000000000
     19033       266  TIP3      H1            -25.6151768856      -32.3092577332       26.4903259786  TIP3      106             0.0000000000
     19034       266  TIP3      H2            -24.3982139810      -32.7571693929       25.6999173478  TIP3      106             0.0000000000
     19035       267  TIP3      OH2           -27.7770708123      -18.8722904443       22.7691340146  TIP3      107             0.0000000000
     19036       267  TIP3      H1            -27.6939621823      -17.9671010451       22.4080078562  TIP3      107             0.0000000000
     19037       267  TIP3      H2            -28.2353764112      -18.6956423111       23.6091042662  TIP3      107             0.0000000000
     19038       268  TIP3      OH2           -29.0950861365      -32.8668625033       22.8330710296  TIP3      108             0.0000000000
     19039       268  TIP3      H1            -29.1955128725      -31.9175865144       22.6767102593  TIP3      108             0.0000000000
     19040       268  TIP3      H2            -28.1576865804      -32.8952363784       23.1330154507  TIP3      108             0.0000000000
     19041       269  TIP3      OH2           -19.6267026912      -31.0630586923       35.2751434713  TIP3      109             0.0000000000
     19042       269  TIP3      H1            -20.4833718152      -30.8353666150       34.8456056361  TIP3      109             0.0000000000
     19043       269  TIP3      H2            -19.1342694060      -31.4615749998       34.5429795997  TIP3      109             0.0000000000
     19044       270  TIP3      OH2           -19.9743106776      -27.2163680136       28.6333532500  TIP3      110             0.0000000000
     19045       270  TIP3      H1            -20.8519108606      -27.6537227901       28.7917416534  TIP3      110             0.0000000000
     19046       270  TIP3      H2            -19.5152495834      -27.4471151011       29.4606378584  TIP3      110             0.0000000000
     19047       271  TIP3      OH2           -19.1798671929      -17.7942608562       31.0863718402  TIP3      111             0.0000000000
     19048       271  TIP3      H1            -19.3971950432      -17.0948647657       30.4384484867  TIP3      111             0.0000000000
     19049       271  TIP3      H2            -18.7611897860      -18.4039643159       30.4428059980  TIP3      111             0.0000000000
     19050       272  TIP3      OH2           -32.0354417726      -33.7863685405       29.5836886663  TIP3      112             0.0000000000
     19051       272  TIP3      H1            -32.1394608882      -34.1194498483       28.6591444938  TIP3      112             0.0000000000
     19052       272  TIP3      H2            -31.8405632536      -34.6226699705       30.0734992126  TIP3      112             0.0000000000
     19053       273  TIP3      OH2           -32.8937129908      -20.8354410836       26.2428199001  TIP3      113             0.0000000000
     19054       273  TIP3      H1            -32.9416733489      -21.7826943048       26.5200498381  TIP3      113             0.0000000000
     19055       273  TIP3      H2            -32.0616408422      -20.8563155414       25.7502623059  TIP3      113             0.0000000000
     19056       274  TIP3      OH2           -33.4485283453      -16.8874353601       37.4614063137  TIP3      114             0.0000000000
     19057       274  TIP3      H1            -32.9578848557      -17.4511280858       38.1046468086  TIP3      114             0.0000000000
     19058       274  TIP3      H2            -33.5616315491      -17.4981481140       36.6945284413  TIP3      114             0.0000000000
     19059       275  TIP3      OH2           -28.6740088733      -18.9153443328       39.2555114891  TIP3      115             0.0000000000
     19060       275  TIP3      H1            -27.8213894381      -19.3740625498       39.2170391409  TIP3      115             0.0000000000
     19061       275  TIP3      H2            -29.0035674541      -19.1177943817       38.3612192193  TIP3      115             0.0000000000
     19062       276  TIP3      OH2           -22.7589168407      -19.7706467919       37.6850597984  TIP3      116             0.0000000000
     19063       276  TIP3      H1            -23.1012649175      -20.6770122579       37.8660950837  TIP3      116             0.0000000000
     19064       276  TIP3      H2            -21.8078307704      -19.9124083821       37.7697388939  TIP3      116             0.0000000000
     19065       277  TIP3      OH2           -34.1621240988      -23.9034947737       37.4399379131  TIP3      117             0.0000000000
     19066       277  TIP3      H1            -34.3701449712      -24.7878697527       37.0790516696  TIP3      117             0.0000000000
     19067       277  TIP3      H2            -35.0198567314      -23.4919407826       37.2909832969  TIP3      117             0.0000000000
     19068       278  TIP3      OH2           -27.6069092685      -23.7937509126       36.9944988286  TIP3      118             0.0000000000
     19069       278  TIP3      H1            -27.6900213712      -23.2837198292       36.1652418152  TIP3      118             0.0000000000
     19070       278  TIP3      H2            -27.2788799661      -24.6805594597       36.7149053179  TIP3      118             0.0000000000
     19071       279  TIP3      OH2           -22.0718461829      -23.9009781826       35.1366904279  TIP3      119             0.0000000000
     19072       279  TIP3      H1            -21.3073671507      -23.3819782206       34.8545163489  TIP3      119             0.0000000000
     19073       279  TIP3      H2            -22.6793125303      -23.1584842042       35.3287808074  TIP3      119             0.0000000000
     19074       280  TIP3      OH2           -32.6351925764      -27.0193808553       37.4167995799  TIP3      120             0.0000000000
     19075       280  TIP3      H1            -31.8571489059      -27.4541905460       37.7893915714  TIP3      120             0.0000000000
     19076       280  TIP3      H2            -32.5822911882      -26.1230791960       37.8014968978  TIP3      120             0.0000000000
     19077       281  TIP3      OH2           -28.3769256414      -25.1165003030       22.6255678257  TIP3      121             0.0000000000
     19078       281  TIP3      H1            -29.0344851383      -25.4123715182       23.2906677858  TIP3      121             0.0000000000
     19079       281  TIP3      H2            -28.3769958772      -25.8582213537       21.9895015869  TIP3      121             0.0000000000
     19080       282  TIP3      OH2           -28.8243298589      -27.7352361212       35.1525803937  TIP3      122             0.0000000000
     19081       282  TIP3      H1            -29.5667400410      -27.1091359664       34.9771152995  TIP3      122             0.0000000000
     19082       282  TIP3      H2            -28.3084531662      -27.5491805121       34.3418874586  TIP3      122             0.0000000000
     19083       283  TIP3      OH2           -27.3069079931      -26.8635009288       20.5776351338  TIP3      123             0.0000000000
     19084       283  TIP3      H1            -27.8869489104      -26.8215240557       19.7948335781  TIP3      123             0.0000000000
     19085       283  TIP3      H2            -26.6229856021      -26.2229337890       20.3218572571  TIP3      123             0.0000000000
     19086       284  TIP3      OH2           -23.8567811158      -24.9170321325       38.1991878102  TIP3      124             0.0000000000
     19087       284  TIP3      H1            -23.3341738136      -25.7298023277       38.2249403478  TIP3      124             0.0000000000
     19088       284  TIP3      H2            -24.5093463911      -25.0033882707       38.9337312122  TIP3      124             0.0000000000
     19089       285  TIP3      OH2           -27.8425628367      -30.2250535021       35.7510238344  TIP3      125             0.0000000000
     19090       285  TIP3      H1            -27.7498570530      -30.6649409744       34.8783842659  TIP3      125             0.0000000000
     19091       285  TIP3      H2            -27.8933003044      -29.2746415193       35.4954212655  TIP3      125             0.0000000000
     19092       286  TIP3      OH2           -27.8238480479      -31.8860253441       33.5178432818  TIP3      126             0.0000000000
     19093       286  TIP3      H1            -27.4547860288      -31.3659944340       32.7593971800  TIP3      126             0.0000000000
     19094       286  TIP3      H2            -28.7529957928      -32.0410259549       33.2404373780  TIP3      126             0.0000000000
     19095       287  TIP3      OH2           -26.6977532881      -26.2630123628       34.1151119479  TIP3      127             0.0000000000
     19096       287  TIP3      H1            -26.4498614691      -26.5482104374       33.2176381123  TIP3      127             0.0000000000
     19097       287  TIP3      H2            -27.1197863431      -25.3977664095       33.9011206640  TIP3      127             0.0000000000
     19098       288  TIP3      OH2           -21.8481635266      -29.1276482927       38.6382944798  TIP3      128             0.0000000000
     19099       288  TIP3      H1            -21.6980619553      -30.0283071285       38.9758856080  TIP3      128             0.0000000000
     19100       288  TIP3      H2            -20.9601410010      -28.8974976499       38.3247995352  TIP3      128             0.0000000000
     19101       289  TIP3      OH2           -21.0507826117      -25.4942615299       37.1548818959  TIP3      129             0.0000000000
     19102       289  TIP3      H1            -21.6124457152      -25.0927576355       36.4589091812  TIP3      129             0.0000000000
     19103       289  TIP3      H2            -20.1894955770      -25.5732261157       36.6930198426  TIP3      129             0.0000000000
     19104       290  TIP3      OH2           -30.2860691249      -29.0085079718       38.0422606278  TIP3      130             0.0000000000
     19105       290  TIP3      H1            -30.9050106139      -29.7540824222       37.8628347624  TIP3      130             0.0000000000
     19106       290  TIP3      H2            -29.7244584537      -29.0244027795       37.2442355742  TIP3      130             0.0000000000
     19107       291  TIP3      OH2           -27.4216253041      -34.5268172539       33.7758260683  TIP3      131             0.0000000000
     19108       291  TIP3      H1            -27.5837760894      -33.5529123840       33.8296007226  TIP3      131             0.0000000000
     19109       291  TIP3      H2            -28.2601931811      -34.8225755735       33.3643623141  TIP3      131             0.0000000000
     19110       292  TIP3      OH2           -26.1427644869      -30.1900367496       37.8702183695  TIP3      132             0.0000000000
     19111       292  TIP3      H1            -26.8310121599      -30.3969330764       38.5321228363  TIP3      132             0.0000000000
     19112       292  TIP3      H2            -26.6428765704      -30.4130484247       37.0533315541  TIP3      132             0.0000000000
     19113       293  TIP3      OH2           -23.5923740755      -30.8457335071       36.4593308763  TIP3      133             0.0000000000
     19114       293  TIP3      H1            -24.3249406170      -30.6697305445       37.0765323338  TIP3      133             0.0000000000
     19115       293  TIP3      H2            -22.9847723449      -31.3708249309       37.0410071210  TIP3      133             0.0000000000
     19116       294  TIP3      OH2           -22.1648435873      -32.2738626634       38.1997506335  TIP3      134             0.0000000000
     19117       294  TIP3      H1            -21.6916082939      -33.1239223140       38.1612302153  TIP3      134             0.0000000000
     19118       294  TIP3      H2            -22.2603035639      -32.0933649170       39.1671658246  TIP3      134             0.0000000000
     19119       295  TIP3      OH2           -32.0870114189      -31.0126067969       37.8349240280  TIP3      135             0.0000000000
     19120       295  TIP3      H1            -32.1747557454      -31.8251377173       37.2885016438  TIP3      135             0.0000000000
     19121       295  TIP3      H2            -32.1544709778      -31.4142663097       38.7387033891  TIP3      135             0.0000000000
     19122       296  TIP3      OH2           -26.6437457253      -33.9579181370       36.7440736111  TIP3      136             0.0000000000
     19123       296  TIP3      H1            -25.9871600241      -34.5359194092       37.1973474842  TIP3      136             0.0000000000
     19124       296  TIP3      H2            -26.9014772156      -34.5198498055       35.9961347315  TIP3      136             0.0000000000
     19125       297  TIP3      OH2           -27.3388667205      -33.3380889323       39.3683657509  TIP3      137             0.0000000000
     19126       297  TIP3      H1            -27.0307841332      -33.6491066075       38.4954255585  TIP3      137             0.0000000000
     19127       297  TIP3      H2            -27.6905842180      -32.4469447588       39.1454791801  TIP3      137             0.0000000000
     19128       298  TIP3      OH2           -27.3965430569      -16.1200913252       21.9426162878  TIP3      138             0.0000000000
     19129       298  TIP3      H1            -26.7195136259      -15.4084427617       21.9727637299  TIP3      138             0.0000000000
     19130       298  TIP3      H2            -28.1395008091      -15.6430317648       21.5412309250  TIP3      138             0.0000000000
     19131       299  TIP3      OH2           -33.6431086156      -22.7993147260       20.8157355401  TIP3      139             0.0000000000
     19132       299  TIP3      H1            -32.8363807788      -23.3076273598       20.7474552732  TIP3      139             0.0000000000
     19133       299  TIP3      H2            -33.7784588583      -22.4985440336       19.9047064058  TIP3      139             0.0000000000
     19134       300  TIP3      OH2            34.8378209474      -16.8812270451       26.1375993433  TIP3      140             0.0000000000
     19135       300  TIP3      H1             34.6134589662      -16.0421417220       25.7031053422  TIP3      140             0.0000000000
     19136       300  TIP3      H2             35.1895325116      -16.5412248840       26.9854888738  TIP3      140             0.0000000000
     19137       301  TIP3      OH2           -33.8231531294      -18.2615685986       27.9805533533  TIP3      141             0.0000000000
     19138       301  TIP3      H1            -33.6275081428      -19.1496984665       28.3625624954  TIP3      141             0.0000000000
     19139       301  TIP3      H2            -33.6382810319      -17.6698335527       28.7360880321  TIP3      141             0.0000000000
     19140       302  TIP3      OH2           -16.4400001536      -17.5350310457       32.0047780031  TIP3      142             0.0000000000
     19141       302  TIP3      H1            -16.2109981487      -16.6014801449       31.8611386252  TIP3      142             0.0000000000
     19142       302  TIP3      H2            -17.0326031023      -17.7275775458       31.2631262674  TIP3      142             0.0000000000
     19143       303  TIP3      OH2           -17.4329083440      -17.8570220498       34.5990464288  TIP3      143             0.0000000000
     19144       303  TIP3      H1            -17.5126908720      -18.1637622659       33.6676688115  TIP3      143             0.0000000000
     19145       303  TIP3      H2            -17.0275414432      -18.6502514972       35.0071133342  TIP3      143             0.0000000000
     19146       304  TIP3      OH2           -18.5992567259      -22.0940924186       38.7983205120  TIP3      144             0.0000000000
     19147       304  TIP3      H1            -19.3218242995      -22.1433208058       39.4545787729  TIP3      144             0.0000000000
     19148       304  TIP3      H2            -18.0717543426      -21.3652394838       39.2051572842  TIP3      144             0.0000000000
     19149       305  TIP3      OH2           -17.5346288820      -24.2879101297       23.8999861302  TIP3      145             0.0000000000
     19150       305  TIP3      H1            -16.8954188167      -23.5828538587       24.0827380362  TIP3      145             0.0000000000
     19151       305  TIP3      H2            -17.5915220468      -24.7272202680       24.7715957959  TIP3      145             0.0000000000
     19152       306  TIP3      OH2           -17.3140543894      -25.6545368551       26.3042510966  TIP3      146             0.0000000000
     19153       306  TIP3      H1            -17.9041449811      -26.4320120329       26.1297924808  TIP3      146             0.0000000000
     19154       306  TIP3      H2            -16.8724528696      -25.9720765512       27.1054793643  TIP3      146             0.0000000000
     19155       307  TIP3      OH2           -16.5962018725      -23.1235802253       31.6991158534  TIP3      147             0.0000000000
     19156       307  TIP3      H1            -16.4635625524      -23.8243629657       31.0151905274  TIP3      147             0.0000000000
     19157       307  TIP3      H2            -16.5943029003      -22.3073101291       31.1422908474  TIP3      147             0.0000000000
     19158       308  TIP3      OH2           -18.4451613900      -20.0784247310       33.2731980664  TIP3      148             0.0000000000
     19159       308  TIP3      H1            -19.2951966712      -20.2367207663       33.7375766488  TIP3      148             0.0000000000
     19160       308  TIP3      H2            -18.7952039198      -20.2480893343       32.3685093062  TIP3      148             0.0000000000
     19161       309  TIP3      OH2           -16.7177444033      -26.3084398322       22.4595921373  TIP3      149             0.0000000000
     19162       309  TIP3      H1            -17.3523460001      -26.0274152479       21.7890189806  TIP3      149             0.0000000000
     19163       309  TIP3      H2            -16.7934515975      -25.4978611096       23.0139646820  TIP3      149             0.0000000000
     19164       310  TIP3      OH2           -18.6854887565      -28.9601988170       20.4161916677  TIP3      150             0.0000000000
     19165       310  TIP3      H1            -18.4194690362      -28.1017197491       20.0602551345  TIP3      150             0.0000000000
     19166       310  TIP3      H2            -18.4254688568      -29.5544450197       19.6962587983  TIP3      150             0.0000000000
     19167       311  TIP3      OH2           -18.8372741868      -27.7941370642       26.2702900920  TIP3      151             0.0000000000
     19168       311  TIP3      H1            -19.2120116986      -28.6605896136       26.0274208486  TIP3      151             0.0000000000
     19169       311  TIP3      H2            -19.1974095331      -27.5911134727       27.1749164424  TIP3      151             0.0000000000
     19170       312  TIP3      OH2           -34.1971905719      -25.3160903199       30.0144480255  TIP3      152             0.0000000000
     19171       312  TIP3      H1            -33.6159544138      -24.5769557803       29.7585218410  TIP3      152             0.0000000000
     19172       312  TIP3      H2            -34.3408657658      -25.1624299600       30.9773103739  TIP3      152             0.0000000000
     19173       313  TIP3      OH2           -18.1872317560      -25.3155300696       36.2232051846  TIP3      153             0.0000000000
     19174       313  TIP3      H1            -17.7084486977      -26.1529490365       36.4132553110  TIP3      153             0.0000000000
     19175       313  TIP3      H2            -17.4806216638      -24.6499143621       36.2499095131  TIP3      153             0.0000000000
     19176       314  TIP3      OH2           -16.9762304089      -27.5540194386       37.2488053306  TIP3      154             0.0000000000
     19177       314  TIP3      H1            -17.6967511749      -28.0744158850       36.8252078801  TIP3      154             0.0000000000
     19178       314  TIP3      H2            -16.2481241707      -28.2038782410       37.2715437917  TIP3      154             0.0000000000
     19179       315  TIP3      OH2           -19.7666749229      -29.8076976390       24.5937995285  TIP3      155             0.0000000000
     19180       315  TIP3      H1            -19.6034037861      -30.7116050558       24.9253989804  TIP3      155             0.0000000000
     19181       315  TIP3      H2            -18.8704575972      -29.4793032104       24.4209569337  TIP3      155             0.0000000000
     19182       316  TIP3      OH2           -18.6579939470      -29.2166192065       30.4919121423  TIP3      156             0.0000000000
     19183       316  TIP3      H1            -17.6856447357      -29.2308253253       30.6798968771  TIP3      156             0.0000000000
     19184       316  TIP3      H2            -19.0386498336      -29.0422319911       31.3735579181  TIP3      156             0.0000000000
     19185       317  TIP3      OH2           -18.7733355543      -28.4591450003       33.3499986056  TIP3      157             0.0000000000
     19186       317  TIP3      H1            -19.6421861873      -28.0956813973       33.6265733473  TIP3      157             0.0000000000
     19187       317  TIP3      H2            -18.3467538422      -27.6644280729       32.9737456031  TIP3      157             0.0000000000
     19188       318  TIP3      OH2           -34.1317060192      -29.8811903950       36.5887551321  TIP3      158             0.0000000000
     19189       318  TIP3      H1            -33.2158473253      -30.0802268615       36.8687179587  TIP3      158             0.0000000000
     19190       318  TIP3      H2            -34.5984029738      -30.6050659288       37.0420231977  TIP3      158             0.0000000000
     19191       319  TIP3      OH2           -15.8553984748      -34.2817567912       38.5606254192  TIP3      159             0.0000000000
     19192       319  TIP3      H1            -15.7313961557      -35.1715735864       38.2136406118  TIP3      159             0.0000000000
     19193       319  TIP3      H2            -16.1310232825      -33.7637217215       37.7759323576  TIP3      159             0.0000000000
     19194       320  TIP3      OH2           -19.2370729913      -32.3717625332       25.3402996599  TIP3      160             0.0000000000
     19195       320  TIP3      H1            -19.6208003898      -32.2765713134       26.2354599800  TIP3      160             0.0000000000
     19196       320  TIP3      H2            -19.8094196273      -33.1269925408       25.0415070397  TIP3      160             0.0000000000
     19197       321  TIP3      OH2           -33.9446414685      -31.8283577049       29.4895437311  TIP3      161             0.0000000000
     19198       321  TIP3      H1            -33.2276826979      -32.4292758742       29.7679846502  TIP3      161             0.0000000000
     19199       321  TIP3      H2            -33.5280270364      -30.9463581511       29.5227621279  TIP3      161             0.0000000000
     19200       322  TIP3      OH2           -34.7410580355      -28.2126486292       30.9713131437  TIP3      162             0.0000000000
     19201       322  TIP3      H1            -34.6716951177      -28.0656213985       30.0204121132  TIP3      162             0.0000000000
     19202       322  TIP3      H2            -34.4202035583      -27.3642576359       31.3425885867  TIP3      162             0.0000000000
     19203       323  TIP3      OH2           -17.2601184546      -32.4937404117       36.8833651642  TIP3      163             0.0000000000
     19204       323  TIP3      H1            -18.1143006088      -32.0652435228       37.1007445404  TIP3      163             0.0000000000
     19205       323  TIP3      H2            -17.4523104777      -32.9687462532       36.0516377196  TIP3      163             0.0000000000
     19206       324  TIP3      OH2           -34.1326699512      -31.8306711350       24.6328523374  TIP3      164             0.0000000000
     19207       324  TIP3      H1            -34.2639661543      -32.5827519224       25.2474563040  TIP3      164             0.0000000000
     19208       324  TIP3      H2            -33.3350206811      -32.1842083984       24.1963556845  TIP3      164             0.0000000000
     19209       325  TIP3      OH2           -19.9530273978      -17.3420044737       26.9668745293  TIP3      165             0.0000000000
     19210       325  TIP3      H1            -19.4141300073      -17.3009242925       26.1619455086  TIP3      165             0.0000000000
     19211       325  TIP3      H2            -19.3292018868      -17.8558034671       27.5306964226  TIP3      165             0.0000000000
     19212       326  TIP3      OH2            35.2628447887      -33.8323908148       33.3256938621  TIP3      166             0.0000000000
     19213       326  TIP3      H1             34.7010422946      -34.5408125029       33.6661924138  TIP3      166             0.0000000000
     19214       326  TIP3      H2             34.8005791843      -33.5837543072       32.4904769439  TIP3      166             0.0000000000
     19215       327  TIP3      OH2           -32.6609044692      -20.5871800556       37.3402720877  TIP3      167             0.0000000000
     19216       327  TIP3      H1            -33.2129520022      -20.1245980025       36.6783669854  TIP3      167             0.0000000000
     19217       327  TIP3      H2            -32.8262686155      -20.0558216756       38.1361030194  TIP3      167             0.0000000000
     19218       328  TIP3      OH2           -28.6848964506      -18.8485674507       34.4569461464  TIP3      168             0.0000000000
     19219       328  TIP3      H1            -28.9907222246      -18.0560292699       33.9529778650  TIP3      168             0.0000000000
     19220       328  TIP3      H2            -28.2516083865      -19.3426619754       33.7283023152  TIP3      168             0.0000000000
     19221       329  TIP3      OH2           -25.4787335556      -18.2818277764       36.2440533653  TIP3      169             0.0000000000
     19222       329  TIP3      H1            -25.5302550542      -18.0488814822       37.1875143509  TIP3      169             0.0000000000
     19223       329  TIP3      H2            -24.6601995884      -17.8314250727       35.9700833607  TIP3      169             0.0000000000
     19224       330  TIP3      OH2           -23.2185666083      -16.7915059707       35.7722453442  TIP3      170             0.0000000000
     19225       330  TIP3      H1            -22.6082084705      -17.2649184645       35.1767300876  TIP3      170             0.0000000000
     19226       330  TIP3      H2            -22.6288235929      -16.2501564605       36.3114785914  TIP3      170             0.0000000000
     19227       331  TIP3      OH2           -17.7611896172      -34.2273818206       34.6701636462  TIP3      171             0.0000000000
     19228       331  TIP3      H1            -18.4060513948      -33.6660559750       34.1972294824  TIP3      171             0.0000000000
     19229       331  TIP3      H2            -17.9950504360      -35.1095780355       34.3136239962  TIP3      171             0.0000000000
     19230       332  TIP3      OH2           -32.1744021336      -16.4094793186       33.3183429530  TIP3      172             0.0000000000
     19231       332  TIP3      H1            -32.6330690320      -15.6480495346       32.9236190216  TIP3      172             0.0000000000
     19232       332  TIP3      H2            -32.4503271075      -16.3526285431       34.2381820002  TIP3      172             0.0000000000
     19233       333  TIP3      OH2           -29.4925271518      -16.8244822641       32.9456482281  TIP3      173             0.0000000000
     19234       333  TIP3      H1            -30.4463455036      -16.8213728733       33.1872125909  TIP3      173             0.0000000000
     19235       333  TIP3      H2            -29.5713349370      -16.4384766477       32.0517307883  TIP3      173             0.0000000000
     19236       334  TIP3      OH2           -25.1804859158      -16.9860934621       31.4937574947  TIP3      174             0.0000000000
     19237       334  TIP3      H1            -25.9861979384      -16.4541589035       31.3424930416  TIP3      174             0.0000000000
     19238       334  TIP3      H2            -24.7079473297      -16.3786401347       32.0871679956  TIP3      174             0.0000000000
     19239       335  TIP3      OH2           -23.2848657541      -18.1892804268       33.2017586431  TIP3      175             0.0000000000
     19240       335  TIP3      H1            -23.8730235113      -18.0401415461       32.4485529981  TIP3      175             0.0000000000
     19241       335  TIP3      H2            -22.4645316750      -17.7906128295       32.8660332756  TIP3      175             0.0000000000
     19242       336  TIP3      OH2           -20.7929981913      -16.5116213169       32.8090039045  TIP3      176             0.0000000000
     19243       336  TIP3      H1            -20.7551685884      -15.5975269770       32.4459482535  TIP3      176             0.0000000000
     19244       336  TIP3      H2            -20.2301502684      -16.9611541503       32.1259202376  TIP3      176             0.0000000000
     19245       337  TIP3      OH2           -32.4234945146      -18.1215672039       30.2844053131  TIP3      177             0.0000000000
     19246       337  TIP3      H1            -32.8801597489      -18.7820953802       30.8439295931  TIP3      177             0.0000000000
     19247       337  TIP3      H2            -31.5071025908      -18.3323289497       30.5858541408  TIP3      177             0.0000000000
     19248       338  TIP3      OH2           -30.0455803084      -18.9296541123       28.3987055046  TIP3      178             0.0000000000
     19249       338  TIP3      H1            -30.2820585159      -19.6083705708       29.0691476529  TIP3      178             0.0000000000
     19250       338  TIP3      H2            -29.5119702142      -18.3793172647       29.0100946484  TIP3      178             0.0000000000
     19251       339  TIP3      OH2           -27.6707750242      -18.1700187877       29.7206588296  TIP3      179             0.0000000000
     19252       339  TIP3      H1            -27.0898170996      -18.9467038700       29.7896661851  TIP3      179             0.0000000000
     19253       339  TIP3      H2            -28.1311711914      -18.2599584223       30.5849544296  TIP3      179             0.0000000000
     19254       340  TIP3      OH2           -24.0803258953      -32.4915536864       28.8723130633  TIP3      180             0.0000000000
     19255       340  TIP3      H1            -24.7996868973      -32.8027385325       29.4269007216  TIP3      180             0.0000000000
     19256       340  TIP3      H2            -24.4029320230      -32.7281156121       27.9797093246  TIP3      180             0.0000000000
     19257       341  TIP3      OH2           -19.8885733758      -34.1268617346       29.0621782123  TIP3      181             0.0000000000
     19258       341  TIP3      H1            -19.2769398141      -34.0987396915       28.3241219286  TIP3      181             0.0000000000
     19259       341  TIP3      H2            -20.7630070012      -33.9506266929       28.6474788363  TIP3      181             0.0000000000
     19260       342  TIP3      OH2           -17.4531388872      -33.5356404767       27.6092257871  TIP3      182             0.0000000000
     19261       342  TIP3      H1            -17.5603084153      -33.6818967706       28.5600034235  TIP3      182             0.0000000000
     19262       342  TIP3      H2            -16.9879729304      -32.6662428303       27.6250907983  TIP3      182             0.0000000000
     19263       343  TIP3      OH2           -32.1227758520      -34.6058523839       27.0785962740  TIP3      183             0.0000000000
     19264       343  TIP3      H1            -33.0800291709      -34.4712365865       26.9350235927  TIP3      183             0.0000000000
     19265       343  TIP3      H2            -31.9737407597      -35.5296357666       26.8417043434  TIP3      183             0.0000000000
     19266       344  TIP3      OH2           -33.0416605212      -33.8118291118       23.2896358619  TIP3      184             0.0000000000
     19267       344  TIP3      H1            -33.1150597472      -33.6135727311       22.3523177241  TIP3      184             0.0000000000
     19268       344  TIP3      H2            -33.8169954475      -34.3999147712       23.4091579065  TIP3      184             0.0000000000
     19269       345  TIP3      OH2           -27.5666324703      -34.3593156061       26.2429618923  TIP3      185             0.0000000000
     19270       345  TIP3      H1            -26.7717983954      -33.9168807310       25.8969053343  TIP3      185             0.0000000000
     19271       345  TIP3      H2            -27.4136067417      -34.1045248614       27.1668146043  TIP3      185             0.0000000000
     19272       346  TIP3      OH2           -22.0610490997      -34.3843805991       27.6060042373  TIP3      186             0.0000000000
     19273       346  TIP3      H1            -22.2427493423      -34.4801434458       26.6625691062  TIP3      186             0.0000000000
     19274       346  TIP3      H2            -22.1689543391      -35.3233222886       27.8689083177  TIP3      186             0.0000000000
     19275       347  TIP3      OH2           -20.7207799948      -34.5118226951       24.7067206539  TIP3      187             0.0000000000
     19276       347  TIP3      H1            -21.6051277545      -34.3946946236       24.2689958258  TIP3      187             0.0000000000
     19277       347  TIP3      H2            -20.6879286423      -35.4840426966       24.6385133221  TIP3      187             0.0000000000
     19278       348  TIP3      OH2           -33.4495042707      -18.4370296133       22.5608128840  TIP3      188             0.0000000000
     19279       348  TIP3      H1            -33.8736006824      -18.4236601743       21.6811704603  TIP3      188             0.0000000000
     19280       348  TIP3      H2            -33.2942641586      -17.4745393286       22.6742080855  TIP3      188             0.0000000000
     19281       349  TIP3      OH2           -26.5736659629      -32.0790441075       23.4455190652  TIP3      189             0.0000000000
     19282       349  TIP3      H1            -25.9207877806      -32.6236976539       23.9260550784  TIP3      189             0.0000000000
     19283       349  TIP3      H2            -26.4583559136      -31.2265742874       23.9048584938  TIP3      189             0.0000000000
     19284       350  TIP3      OH2           -18.1496264023      -18.1403154402       24.6750620817  TIP3      190             0.0000000000
     19285       350  TIP3      H1            -18.2618171244      -19.1067794193       24.7497038767  TIP3      190             0.0000000000
     19286       350  TIP3      H2            -18.3730296129      -18.0084003056       23.7348095096  TIP3      190             0.0000000000
     19287       351  TIP3      OH2           -32.6204400675      -33.3940878307       36.5269713690  TIP3      191             0.0000000000
     19288       351  TIP3      H1            -33.2797925402      -34.0996220629       36.5787906739  TIP3      191             0.0000000000
     19289       351  TIP3      H2            -31.8174636707      -33.8256152170       36.9001575727  TIP3      191             0.0000000000
     19290       352  TIP3      OH2           -30.5556770515      -34.3973713977       38.0271146022  TIP3      192             0.0000000000
     19291       352  TIP3      H1            -29.6035838136      -34.4241685017       38.2010155185  TIP3      192             0.0000000000
     19292       352  TIP3      H2            -30.7619878004      -35.3500516776       37.8878250156  TIP3      192             0.0000000000
     19293       353  TIP3      OH2           -31.0455100759      -17.2258666780       20.6116631155  TIP3      193             0.0000000000
     19294       353  TIP3      H1            -31.8865946182      -17.2953059214       20.1352278753  TIP3      193             0.0000000000
     19295       353  TIP3      H2            -31.2998753059      -16.6435468665       21.3400005514  TIP3      193             0.0000000000
     19296       354  TIP3      OH2           -21.8031661508       35.0923636721       37.6238187842  TIP3      194             0.0000000000
     19297       354  TIP3      H1            -22.1437442158       34.8642980246       38.5043556663  TIP3      194             0.0000000000
     19298       354  TIP3      H2            -20.8394848435       34.9178128531       37.7186410517  TIP3      194             0.0000000000
     19299       355  TIP3      OH2           -18.8053650090      -19.2801429650       36.8878674511  TIP3      195             0.0000000000
     19300       355  TIP3      H1            -19.7226075240      -19.4263651353       36.5883231648  TIP3      195             0.0000000000
     19301       355  TIP3      H2            -18.6884754293      -18.4438496701       36.4132896918  TIP3      195             0.0000000000
     19302       356  TIP3      OH2            -4.0281918112      -24.9851172877       26.7874880229  TIP3      196             0.0000000000
     19303       356  TIP3      H1             -4.1461762805      -24.0024349998       26.7963319260  TIP3      196             0.0000000000
     19304       356  TIP3      H2             -4.7150776734      -25.2528474262       26.1467636204  TIP3      196             0.0000000000
     19305       357  TIP3      OH2            -5.7405958215      -26.1589675723       30.7536494496  TIP3      197             0.0000000000
     19306       357  TIP3      H1             -5.1232713504      -26.7234417954       31.2755816603  TIP3      197             0.0000000000
     19307       357  TIP3      H2             -5.7796813195      -26.6442866536       29.9114571928  TIP3      197             0.0000000000
     19308       358  TIP3      OH2           -13.2411224803      -26.2462390030       31.5060219644  TIP3      198             0.0000000000
     19309       358  TIP3      H1            -13.2771722718      -27.0124683590       32.1050126149  TIP3      198             0.0000000000
     19310       358  TIP3      H2            -12.7564987235      -25.6409288904       32.1082704464  TIP3      198             0.0000000000
     19311       359  TIP3      OH2            -2.0348295503      -23.3605753495       28.8509671792  TIP3      199             0.0000000000
     19312       359  TIP3      H1             -1.7190788580      -23.8803267662       29.6184724047  TIP3      199             0.0000000000
     19313       359  TIP3      H2             -1.9002219617      -22.4398128765       29.1276690515  TIP3      199             0.0000000000
     19314       360  TIP3      OH2           -12.5477029497      -21.5139969515       29.8950488096  TIP3      200             0.0000000000
     19315       360  TIP3      H1            -12.7226998966      -22.4398436422       29.6486008982  TIP3      200             0.0000000000
     19316       360  TIP3      H2            -11.5873104077      -21.5708086819       29.9761576050  TIP3      200             0.0000000000
     19317       361  TIP3      OH2           -15.4336411458      -28.3147973427       25.5223662067  TIP3      201             0.0000000000
     19318       361  TIP3      H1            -15.9726877572      -28.5696119571       26.2923015359  TIP3      201             0.0000000000
     19319       361  TIP3      H2            -16.0579480031      -28.5534140495       24.8038901446  TIP3      201             0.0000000000
     19320       362  TIP3      OH2           -14.1840993763      -25.7189513927       28.2079083745  TIP3      202             0.0000000000
     19321       362  TIP3      H1            -14.0725655862      -26.6018502702       28.6098771293  TIP3      202             0.0000000000
     19322       362  TIP3      H2            -13.5765691676      -25.1681044421       28.7589417748  TIP3      202             0.0000000000
     19323       363  TIP3      OH2            -3.8662358110      -17.6538314751       29.0619318314  TIP3      203             0.0000000000
     19324       363  TIP3      H1             -3.3026964921      -18.2766701227       28.5425378766  TIP3      203             0.0000000000
     19325       363  TIP3      H2             -4.7351184517      -18.0484162275       28.8800470435  TIP3      203             0.0000000000
     19326       364  TIP3      OH2            -7.2090386810      -24.0091287103       31.1730990276  TIP3      204             0.0000000000
     19327       364  TIP3      H1             -6.7215084307      -24.8376574298       30.9641214970  TIP3      204             0.0000000000
     19328       364  TIP3      H2             -6.4620981987      -23.3733707235       31.1528707548  TIP3      204             0.0000000000
     19329       365  TIP3      OH2             1.5049938818      -31.8860301383       31.0147137298  TIP3      205             0.0000000000
     19330       365  TIP3      H1              1.3096403303      -31.3901584417       31.8463104185  TIP3      205             0.0000000000
     19331       365  TIP3      H2              2.3526671768      -31.4286700096       30.8569706213  TIP3      205             0.0000000000
     19332       366  TIP3      OH2            -3.3793647443      -29.1607250632       30.9135963013  TIP3      206             0.0000000000
     19333       366  TIP3      H1             -2.9169092369      -30.0138909128       30.8202903521  TIP3      206             0.0000000000
     19334       366  TIP3      H2             -3.8572846988      -29.1384609914       30.0632866054  TIP3      206             0.0000000000
     19335       367  TIP3      OH2           -10.6014407324      -30.7927906194       27.9778144107  TIP3      207             0.0000000000
     19336       367  TIP3      H1            -10.4397799117      -30.0794243707       27.3282125627  TIP3      207             0.0000000000
     19337       367  TIP3      H2            -11.0966256306      -31.4212687974       27.4096943551  TIP3      207             0.0000000000
     19338       368  TIP3      OH2            -3.2093261830      -30.1825712558       27.6990892849  TIP3      208             0.0000000000
     19339       368  TIP3      H1             -2.6332322175      -30.9494848103       27.8765555365  TIP3      208             0.0000000000
     19340       368  TIP3      H2             -3.5248755834      -30.4169151466       26.7969979176  TIP3      208             0.0000000000
     19341       369  TIP3      OH2           -14.2683581559      -28.5365174493       28.8335179403  TIP3      209             0.0000000000
     19342       369  TIP3      H1            -13.6972447457      -28.8854047221       29.5383698608  TIP3      209             0.0000000000
     19343       369  TIP3      H2            -13.8723095430      -28.9629859744       28.0508929243  TIP3      209             0.0000000000
     19344       370  TIP3      OH2            -9.1005769974      -27.2215099050       28.6756804749  TIP3      210             0.0000000000
     19345       370  TIP3      H1             -8.2288483693      -27.6851786797       28.7520415549  TIP3      210             0.0000000000
     19346       370  TIP3      H2             -9.4984171280      -27.6944612381       27.9161541706  TIP3      210             0.0000000000
     19347       371  TIP3      OH2             1.6876866839      -30.5530298644       33.3773721968  TIP3      211             0.0000000000
     19348       371  TIP3      H1              1.2903017884      -29.6836065983       33.1610356379  TIP3      211             0.0000000000
     19349       371  TIP3      H2              1.9845146042      -30.4191923949       34.2853459076  TIP3      211             0.0000000000
     19350       372  TIP3      OH2           -11.6145918724      -31.9608544865       32.3417830643  TIP3      212             0.0000000000
     19351       372  TIP3      H1            -12.1185939100      -31.5565350213       31.6062641814  TIP3      212             0.0000000000
     19352       372  TIP3      H2            -12.2464754107      -31.7564853241       33.0679381811  TIP3      212             0.0000000000
     19353       373  TIP3      OH2            -4.6701985004      -22.5726711150       25.9291785223  TIP3      213             0.0000000000
     19354       373  TIP3      H1             -5.2960474713      -22.9164159538       25.2731065046  TIP3      213             0.0000000000
     19355       373  TIP3      H2             -4.4486726972      -21.6989822347       25.5383753198  TIP3      213             0.0000000000
     19356       374  TIP3      OH2            -9.6303545431      -24.4809678172       32.0819623678  TIP3      214             0.0000000000
     19357       374  TIP3      H1            -10.2068675475      -23.7105740882       32.3091385807  TIP3      214             0.0000000000
     19358       374  TIP3      H2             -8.8103622665      -24.0528711334       31.7462339725  TIP3      214             0.0000000000
     19359       375  TIP3      OH2            -0.8699976521      -31.6620029122       28.3717862262  TIP3      215             0.0000000000
     19360       375  TIP3      H1             -1.1387804205      -31.9819758420       29.2459058160  TIP3      215             0.0000000000
     19361       375  TIP3      H2             -0.2475024977      -30.9693436504       28.6490363534  TIP3      215             0.0000000000
     19362       376  TIP3      OH2           -12.2119075692      -30.2326650414       30.1626393530  TIP3      216             0.0000000000
     19363       376  TIP3      H1            -11.5882469268      -29.6937823579       30.6966625910  TIP3      216             0.0000000000
     19364       376  TIP3      H2            -11.6382037973      -30.5115331141       29.4073401222  TIP3      216             0.0000000000
     19365       377  TIP3      OH2           -11.1647432645      -22.5409282469       32.9081980988  TIP3      217             0.0000000000
     19366       377  TIP3      H1            -11.1342066340      -21.6050033566       32.6149996072  TIP3      217             0.0000000000
     19367       377  TIP3      H2            -11.8948106094      -22.5023725624       33.5738659645  TIP3      217             0.0000000000
     19368       378  TIP3      OH2           -15.0036347051      -23.1138867314       24.2602528377  TIP3      218             0.0000000000
     19369       378  TIP3      H1            -14.7614995985      -22.6153995689       23.4670785733  TIP3      218             0.0000000000
     19370       378  TIP3      H2            -14.8194313694      -22.3848460749       24.8982821056  TIP3      218             0.0000000000
     19371       379  TIP3      OH2            -1.1287795028      -20.6729376495       30.9106904660  TIP3      219             0.0000000000
     19372       379  TIP3      H1             -2.1103602321      -20.6651896570       31.0088454345  TIP3      219             0.0000000000
     19373       379  TIP3      H2             -1.0567432205      -19.9761891934       30.2424728246  TIP3      219             0.0000000000
     19374       380  TIP3      OH2            -0.5704549676      -32.7227041846       32.4999510096  TIP3      220             0.0000000000
     19375       380  TIP3      H1             -1.3669731714      -32.2693612229       32.1680999559  TIP3      220             0.0000000000
     19376       380  TIP3      H2             -0.0562788336      -32.7368332651       31.6704042197  TIP3      220             0.0000000000
     19377       381  TIP3      OH2            -8.0697354095      -34.2239221693       28.9170152461  TIP3      221             0.0000000000
     19378       381  TIP3      H1             -7.5089843412      -34.6718414337       29.6009517815  TIP3      221             0.0000000000
     19379       381  TIP3      H2             -8.8029123802      -33.8271448930       29.4468251298  TIP3      221             0.0000000000
     19380       382  TIP3      OH2            -2.7370624859      -19.6326248030       27.5383402693  TIP3      222             0.0000000000
     19381       382  TIP3      H1             -2.8543130973      -20.2496572607       26.8017162660  TIP3      222             0.0000000000
     19382       382  TIP3      H2             -2.1061915448      -19.0215567266       27.0919285932  TIP3      222             0.0000000000
     19383       383  TIP3      OH2            -1.3125552171      -21.6125008834       26.0831229982  TIP3      223             0.0000000000
     19384       383  TIP3      H1             -2.0045819694      -21.3367563493       25.4518409409  TIP3      223             0.0000000000
     19385       383  TIP3      H2             -1.7496866364      -22.2845622082       26.6339892600  TIP3      223             0.0000000000
     19386       384  TIP3      OH2            -0.4451964879      -22.6377382492       34.5773532993  TIP3      224             0.0000000000
     19387       384  TIP3      H1             -0.2813206376      -23.3301073230       33.8940018671  TIP3      224             0.0000000000
     19388       384  TIP3      H2             -0.2751795784      -21.8289489313       34.0552981662  TIP3      224             0.0000000000
     19389       385  TIP3      OH2            -5.5439401962      -25.6105127995       24.5868667297  TIP3      225             0.0000000000
     19390       385  TIP3      H1             -6.2527888129      -25.0891023414       24.1370803592  TIP3      225             0.0000000000
     19391       385  TIP3      H2             -4.7485683770      -25.3403530105       24.0810286216  TIP3      225             0.0000000000
     19392       386  TIP3      OH2             1.7094374593      -26.3747249147       32.4366743644  TIP3      226             0.0000000000
     19393       386  TIP3      H1              1.0284692719      -25.6640891810       32.5247667618  TIP3      226             0.0000000000
     19394       386  TIP3      H2              2.1464592648      -26.0732864892       31.6169022367  TIP3      226             0.0000000000
     19395       387  TIP3      OH2            -1.7230269761      -25.3935094305       25.5706715401  TIP3      227             0.0000000000
     19396       387  TIP3      H1             -2.4620869456      -25.1040969834       26.1656822049  TIP3      227             0.0000000000
     19397       387  TIP3      H2             -1.2006161916      -25.9409147429       26.1811563855  TIP3      227             0.0000000000
     19398       388  TIP3      OH2            -2.0751775515      -27.2023423032       34.3064351959  TIP3      228             0.0000000000
     19399       388  TIP3      H1             -2.4199836849      -26.5060601513       34.8882328958  TIP3      228             0.0000000000
     19400       388  TIP3      H2             -2.7690580120      -27.1831012574       33.6285276667  TIP3      228             0.0000000000
     19401       389  TIP3      OH2           -10.5538473772      -25.2888531264       27.2789908401  TIP3      229             0.0000000000
     19402       389  TIP3      H1            -10.7523140292      -25.6589265056       26.4002429912  TIP3      229             0.0000000000
     19403       389  TIP3      H2             -9.8628363778      -25.9015637494       27.6007198067  TIP3      229             0.0000000000
     19404       390  TIP3      OH2            -9.3433880967      -21.7230561799       29.7809570496  TIP3      230             0.0000000000
     19405       390  TIP3      H1             -9.3859781541      -21.8568844024       28.8206251751  TIP3      230             0.0000000000
     19406       390  TIP3      H2             -8.5052706480      -22.1496167375       30.0036312406  TIP3      230             0.0000000000
     19407       391  TIP3      OH2           -10.6276875098      -26.3545775270       30.6844566118  TIP3      231             0.0000000000
     19408       391  TIP3      H1            -10.3992642396      -26.2565513719       29.7345297408  TIP3      231             0.0000000000
     19409       391  TIP3      H2            -10.4569600084      -25.4453149906       31.0352652291  TIP3      231             0.0000000000
     19410       392  TIP3      OH2            -3.7232449141      -20.4400873605       31.4526525264  TIP3      232             0.0000000000
     19411       392  TIP3      H1             -4.0360084187      -19.7409986256       32.0532980917  TIP3      232             0.0000000000
     19412       392  TIP3      H2             -4.0862870007      -21.2388582935       31.8730352464  TIP3      232             0.0000000000
     19413       393  TIP3      OH2            -9.6034478868      -21.9801782304       35.1076991064  TIP3      233             0.0000000000
     19414       393  TIP3      H1            -10.1791788998      -21.3456205389       35.6064603135  TIP3      233             0.0000000000
     19415       393  TIP3      H2            -10.1557779855      -22.0968772290       34.2977194996  TIP3      233             0.0000000000
     19416       394  TIP3      OH2            -3.1585864920      -25.8730319569       23.3343559097  TIP3      234             0.0000000000
     19417       394  TIP3      H1             -2.6660342222      -25.7359758529       24.1780569991  TIP3      234             0.0000000000
     19418       394  TIP3      H2             -2.4769398767      -25.6920256415       22.6777155347  TIP3      234             0.0000000000
     19419       395  TIP3      OH2           -12.5112132817      -25.5548667331       33.9705626670  TIP3      235             0.0000000000
     19420       395  TIP3      H1            -12.3719645354      -24.6778101177       34.3517686541  TIP3      235             0.0000000000
     19421       395  TIP3      H2            -12.9002488774      -26.0198029002       34.7325626138  TIP3      235             0.0000000000
     19422       396  TIP3      OH2            -5.9037603377      -19.4222983919       27.6006199015  TIP3      236             0.0000000000
     19423       396  TIP3      H1             -4.9817550931      -19.7175781917       27.5290793811  TIP3      236             0.0000000000
     19424       396  TIP3      H2             -6.2675193872      -19.6744996694       26.7435910769  TIP3      236             0.0000000000
     19425       397  TIP3      OH2           -10.8541283876      -20.1885881349       36.6947901600  TIP3      237             0.0000000000
     19426       397  TIP3      H1            -11.1255267662      -19.2632409524       36.5007325024  TIP3      237             0.0000000000
     19427       397  TIP3      H2            -11.7507833256      -20.5762358812       36.6063994879  TIP3      237             0.0000000000
     19428       398  TIP3      OH2             0.4761604527      -34.8307284984       23.4259586891  TIP3      238             0.0000000000
     19429       398  TIP3      H1             -0.2999783396      -34.6504700697       23.9710135396  TIP3      238             0.0000000000
     19430       398  TIP3      H2              0.1880292619      -34.3893312085       22.5943546718  TIP3      238             0.0000000000
     19431       399  TIP3      OH2           -11.8522433856      -26.1648313395       24.3665138713  TIP3      239             0.0000000000
     19432       399  TIP3      H1            -10.9940855575      -26.0231033315       23.8946570437  TIP3      239             0.0000000000
     19433       399  TIP3      H2            -11.8748395994      -27.1280239506       24.4443121907  TIP3      239             0.0000000000
     19434       400  TIP3      OH2           -15.2509156362      -23.6512444299       33.9888985257  TIP3      240             0.0000000000
     19435       400  TIP3      H1            -15.6071189848      -23.8669726493       33.1047171354  TIP3      240             0.0000000000
     19436       400  TIP3      H2            -15.1381925642      -24.5821920681       34.3187743588  TIP3      240             0.0000000000
     19437       401  TIP3      OH2           -16.1998291037      -20.5967245854       30.6994185102  TIP3      241             0.0000000000
     19438       401  TIP3      H1            -15.2644106696      -20.5457017488       30.4650479146  TIP3      241             0.0000000000
     19439       401  TIP3      H2            -16.6299076210      -19.9650406880       30.0816845431  TIP3      241             0.0000000000
     19440       402  TIP3      OH2             2.1240232010      -20.1130028198       36.1579797901  TIP3      242             0.0000000000
     19441       402  TIP3      H1              1.9462365817      -21.0088158994       36.4973659503  TIP3      242             0.0000000000
     19442       402  TIP3      H2              1.2359816276      -19.7341997376       36.3554386037  TIP3      242             0.0000000000
     19443       403  TIP3      OH2            -7.2244999801      -20.4806935104       35.3295577813  TIP3      243             0.0000000000
     19444       403  TIP3      H1             -7.1784010026      -19.5055079839       35.5036871739  TIP3      243             0.0000000000
     19445       403  TIP3      H2             -8.1599534779      -20.6322901744       35.0564116356  TIP3      243             0.0000000000
     19446       404  TIP3      OH2            -6.5945272609      -16.8839320437       24.0245174917  TIP3      244             0.0000000000
     19447       404  TIP3      H1             -6.4833863618      -16.6390293455       23.0900032892  TIP3      244             0.0000000000
     19448       404  TIP3      H2             -6.3516587118      -16.0610020899       24.4794173977  TIP3      244             0.0000000000
     19449       405  TIP3      OH2           -12.4467279790      -18.1989073759       26.5476066742  TIP3      245             0.0000000000
     19450       405  TIP3      H1            -12.0645789727      -18.2322393864       27.4487311090  TIP3      245             0.0000000000
     19451       405  TIP3      H2            -13.3975772984      -18.3175928406       26.7438393270  TIP3      245             0.0000000000
     19452       406  TIP3      OH2            -2.9027433914      -17.6621434154       21.8712497300  TIP3      246             0.0000000000
     19453       406  TIP3      H1             -2.8267556201      -18.4185070997       21.2600560180  TIP3      246             0.0000000000
     19454       406  TIP3      H2             -3.2369849659      -18.0928024495       22.6724491285  TIP3      246             0.0000000000
     19455       407  TIP3      OH2            -3.5602167014      -16.8751283653       24.6456840264  TIP3      247             0.0000000000
     19456       407  TIP3      H1             -4.4987345510      -16.9601982370       24.8162461750  TIP3      247             0.0000000000
     19457       407  TIP3      H2             -3.3355654218      -17.8404550079       24.5721968534  TIP3      247             0.0000000000
     19458       408  TIP3      OH2            -0.6603861285      -28.8989047431       36.5748204033  TIP3      248             0.0000000000
     19459       408  TIP3      H1             -1.3780482668      -28.6768652884       35.9673903251  TIP3      248             0.0000000000
     19460       408  TIP3      H2             -0.5938637637      -29.8734562668       36.4731309498  TIP3      248             0.0000000000
     19461       409  TIP3      OH2           -13.0388772600      -22.2906599753       34.6989248241  TIP3      249             0.0000000000
     19462       409  TIP3      H1            -13.1602376779      -22.1848023891       35.6650631790  TIP3      249             0.0000000000
     19463       409  TIP3      H2            -13.8104636919      -22.8540308015       34.4814833167  TIP3      249             0.0000000000
     19464       410  TIP3      OH2           -10.3820793885      -33.2553539866       30.1981093107  TIP3      250             0.0000000000
     19465       410  TIP3      H1            -11.0906833381      -33.9066505749       30.0024865438  TIP3      250             0.0000000000
     19466       410  TIP3      H2            -10.6934194798      -33.0120461728       31.0896479256  TIP3      250             0.0000000000
     19467       411  TIP3      OH2            -5.8873749837      -33.6337240824       33.6462182286  TIP3      251             0.0000000000
     19468       411  TIP3      H1             -5.4532771262      -34.3405730039       34.1288078551  TIP3      251             0.0000000000
     19469       411  TIP3      H2             -6.8199799217      -33.9275866868       33.7081407864  TIP3      251             0.0000000000
     19470       412  TIP3      OH2            -2.9093989915      -29.8419838877       34.5872374811  TIP3      252             0.0000000000
     19471       412  TIP3      H1             -3.4955992078      -30.1028882848       35.3412463431  TIP3      252             0.0000000000
     19472       412  TIP3      H2             -3.1447378053      -28.9086774793       34.4644575846  TIP3      252             0.0000000000
     19473       413  TIP3      OH2           -10.6359306843      -28.8503832936       32.0522391630  TIP3      253             0.0000000000
     19474       413  TIP3      H1            -11.2863290904      -28.9240233703       32.7850191490  TIP3      253             0.0000000000
     19475       413  TIP3      H2            -10.9695775078      -28.0215764103       31.6414950610  TIP3      253             0.0000000000
     19476       414  TIP3      OH2           -10.6446167934      -28.3992583938       26.5341580457  TIP3      254             0.0000000000
     19477       414  TIP3      H1            -11.5193356640      -28.8425315780       26.5244407997  TIP3      254             0.0000000000
     19478       414  TIP3      H2            -10.2324954402      -28.7257553644       25.7037475502  TIP3      254             0.0000000000
     19479       415  TIP3      OH2            -4.7783076381      -28.0500861088       25.6927918682  TIP3      255             0.0000000000
     19480       415  TIP3      H1             -5.0566181292      -27.1890772000       25.3212415834  TIP3      255             0.0000000000
     19481       415  TIP3      H2             -4.2977872589      -28.4278484857       24.9272155722  TIP3      255             0.0000000000
     19482       416  TIP3      OH2            -5.2812299030      -27.6111329428       36.5277310423  TIP3      256             0.0000000000
     19483       416  TIP3      H1             -6.0172696054      -27.9788763019       37.0600873024  TIP3      256             0.0000000000
     19484       416  TIP3      H2             -4.5207792542      -27.8925797662       37.0718200479  TIP3      256             0.0000000000
     19485       417  TIP3      OH2            -4.5483955612      -27.9773042176       28.6448365166  TIP3      257             0.0000000000
     19486       417  TIP3      H1             -4.3928403225      -27.2986740036       27.9668191572  TIP3      257             0.0000000000
     19487       417  TIP3      H2             -4.1178928484      -28.7265942438       28.1668352095  TIP3      257             0.0000000000
     19488       418  TIP3      OH2           -13.0987669969      -28.7850180189       33.2512395127  TIP3      258             0.0000000000
     19489       418  TIP3      H1            -12.7901882105      -28.4551035245       34.1104291393  TIP3      258             0.0000000000
     19490       418  TIP3      H2            -13.5102560546      -29.6430087348       33.5010395385  TIP3      258             0.0000000000
     19491       419  TIP3      OH2           -15.8998569446      -31.3933678905       27.3297480765  TIP3      259             0.0000000000
     19492       419  TIP3      H1            -15.3003546522      -31.1937636016       28.0738540756  TIP3      259             0.0000000000
     19493       419  TIP3      H2            -15.3312684083      -31.8422071671       26.6906829330  TIP3      259             0.0000000000
     19494       420  TIP3      OH2            -4.7897910019      -27.8037948976       32.8897202446  TIP3      260             0.0000000000
     19495       420  TIP3      H1             -4.2602600067      -28.5037460378       32.4440131968  TIP3      260             0.0000000000
     19496       420  TIP3      H2             -5.3559637896      -28.3166749406       33.5164446162  TIP3      260             0.0000000000
     19497       421  TIP3      OH2            -7.8078705426      -31.0174888743       27.7959642201  TIP3      261             0.0000000000
     19498       421  TIP3      H1             -8.6281473273      -31.5408892275       27.7619202911  TIP3      261             0.0000000000
     19499       421  TIP3      H2             -7.4699841236      -31.2756610690       28.6596810268  TIP3      261             0.0000000000
     19500       422  TIP3      OH2           -13.1154242297      -29.6036831570       26.3041166094  TIP3      262             0.0000000000
     19501       422  TIP3      H1            -13.9694758267      -29.5053322985       25.8389619139  TIP3      262             0.0000000000
     19502       422  TIP3      H2            -12.7528972280      -30.4386070717       25.9391494633  TIP3      262             0.0000000000
     19503       423  TIP3      OH2            -9.7851031549      -29.5917349192       24.2521744690  TIP3      263             0.0000000000
     19504       423  TIP3      H1             -8.8285888208      -29.7299927325       24.4191643299  TIP3      263             0.0000000000
     19505       423  TIP3      H2             -9.7667713163      -29.0401791715       23.4368236763  TIP3      263             0.0000000000
     19506       424  TIP3      OH2            -2.8122590059      -32.2263783086       30.8073458769  TIP3      264             0.0000000000
     19507       424  TIP3      H1             -3.5453418909      -32.0155376516       31.4169147485  TIP3      264             0.0000000000
     19508       424  TIP3      H2             -3.3308160603      -32.6265225872       30.0702757746  TIP3      264             0.0000000000
     19509       425  TIP3      OH2            -9.8634679923      -28.4987623436       21.7862061780  TIP3      265             0.0000000000
     19510       425  TIP3      H1            -10.4836675878      -28.9350254660       21.1918087993  TIP3      265             0.0000000000
     19511       425  TIP3      H2             -9.0771396630      -28.4466984355       21.2084394826  TIP3      265             0.0000000000
     19512       426  TIP3      OH2            -0.8715076596      -15.8258831878       37.1113137056  TIP3      266             0.0000000000
     19513       426  TIP3      H1             -0.6573184251      -15.6690921595       36.1676691548  TIP3      266             0.0000000000
     19514       426  TIP3      H2             -0.2140561192      -15.2337315008       37.5280111915  TIP3      266             0.0000000000
     19515       427  TIP3      OH2           -12.7924295499      -23.7201730184       37.0214826937  TIP3      267             0.0000000000
     19516       427  TIP3      H1            -12.2090892556      -23.1502932516       37.5483594464  TIP3      267             0.0000000000
     19517       427  TIP3      H2            -13.4623819818      -23.9814424245       37.6862311585  TIP3      267             0.0000000000
     19518       428  TIP3      OH2            -6.9594132612      -28.4247211377       29.4399847817  TIP3      268             0.0000000000
     19519       428  TIP3      H1             -6.0797780944      -28.3344848270       29.0085574861  TIP3      268             0.0000000000
     19520       428  TIP3      H2             -6.9137650504      -29.3554212473       29.7135131710  TIP3      268             0.0000000000
     19521       429  TIP3      OH2           -11.8659237438      -32.1443751488       26.0111536247  TIP3      269             0.0000000000
     19522       429  TIP3      H1            -12.5694391879      -32.7357504018       26.3455015487  TIP3      269             0.0000000000
     19523       429  TIP3      H2            -11.1891852789      -32.8187317052       25.8141217379  TIP3      269             0.0000000000
     19524       430  TIP3      OH2            -7.7735155546      -30.1515187127       31.4885969113  TIP3      270             0.0000000000
     19525       430  TIP3      H1             -8.6901049631      -30.1276722648       31.8086569661  TIP3      270             0.0000000000
     19526       430  TIP3      H2             -7.2500564820      -30.3117277571       32.2927717076  TIP3      270             0.0000000000
     19527       431  TIP3      OH2            -7.6016187494      -24.0059208441       23.9608202779  TIP3      271             0.0000000000
     19528       431  TIP3      H1             -8.1522832873      -24.8054202415       23.9003141470  TIP3      271             0.0000000000
     19529       431  TIP3      H2             -7.8948930845      -23.6086958640       24.8161328255  TIP3      271             0.0000000000
     19530       432  TIP3      OH2            -0.0571750018      -24.4446590270       32.6439805361  TIP3      272             0.0000000000
     19531       432  TIP3      H1              0.4572779604      -23.8401725733       32.0609920900  TIP3      272             0.0000000000
     19532       432  TIP3      H2             -0.8649803437      -24.5592513688       32.1155551139  TIP3      272             0.0000000000
     19533       433  TIP3      OH2            -6.5267978412      -23.7630173942       34.5764168123  TIP3      273             0.0000000000
     19534       433  TIP3      H1             -6.8576713746      -24.3087554102       35.3122387010  TIP3      273             0.0000000000
     19535       433  TIP3      H2             -7.3211615804      -23.3097581106       34.2600179547  TIP3      273             0.0000000000
     19536       434  TIP3      OH2            -3.3612855310      -28.8526199917       23.5737818835  TIP3      274             0.0000000000
     19537       434  TIP3      H1             -2.6507229084      -29.1227404337       24.1869796736  TIP3      274             0.0000000000
     19538       434  TIP3      H2             -3.0977630575      -27.9687871379       23.2891217395  TIP3      274             0.0000000000
     19539       435  TIP3      OH2           -12.2333062001      -24.3955897000       29.3864346122  TIP3      275             0.0000000000
     19540       435  TIP3      H1            -11.6405181028      -24.5780787971       28.6303752883  TIP3      275             0.0000000000
     19541       435  TIP3      H2            -12.0517911101      -25.1190896454       30.0112971554  TIP3      275             0.0000000000
     19542       436  TIP3      OH2           -15.5925487621      -26.1212265637       34.8496247434  TIP3      276             0.0000000000
     19543       436  TIP3      H1            -15.6141875512      -26.8398420285       35.4989299510  TIP3      276             0.0000000000
     19544       436  TIP3      H2            -16.2305595148      -26.4575956441       34.1811220644  TIP3      276             0.0000000000
     19545       437  TIP3      OH2            -8.5995340075      -26.3498697619       36.3918504872  TIP3      277             0.0000000000
     19546       437  TIP3      H1             -8.7275329702      -27.2649315549       36.1056730832  TIP3      277             0.0000000000
     19547       437  TIP3      H2             -8.0702996082      -26.5657374825       37.1819861935  TIP3      277             0.0000000000
     19548       438  TIP3      OH2            -3.6902406660      -21.0091110973       34.9985987914  TIP3      278             0.0000000000
     19549       438  TIP3      H1             -4.3971215346      -20.8778355032       34.3547198548  TIP3      278             0.0000000000
     19550       438  TIP3      H2             -3.9025612778      -20.3377418694       35.6665414333  TIP3      278             0.0000000000
     19551       439  TIP3      OH2             1.9498521682      -22.8414176182       35.8691180360  TIP3      279             0.0000000000
     19552       439  TIP3      H1              1.0458040957      -22.6855819657       35.5108917691  TIP3      279             0.0000000000
     19553       439  TIP3      H2              2.4058313183      -23.1193479194       35.0462782621  TIP3      279             0.0000000000
     19554       440  TIP3      OH2             0.5264608472      -20.3354639876       23.5266731924  TIP3      280             0.0000000000
     19555       440  TIP3      H1              0.4361391704      -20.7589220972       24.3922483190  TIP3      280             0.0000000000
     19556       440  TIP3      H2             -0.4071862735      -20.3115602072       23.2676245160  TIP3      280             0.0000000000
     19557       441  TIP3      OH2            -2.1262644218      -25.2676524078       30.7848646910  TIP3      281             0.0000000000
     19558       441  TIP3      H1             -2.9499349290      -25.1267746264       30.2901311919  TIP3      281             0.0000000000
     19559       441  TIP3      H2             -1.8399138467      -26.1020423648       30.3512040748  TIP3      281             0.0000000000
     19560       442  TIP3      OH2           -10.1583532678      -21.0758141846       27.1552026174  TIP3      282             0.0000000000
     19561       442  TIP3      H1             -9.6700514586      -20.2219113835       27.0894500653  TIP3      282             0.0000000000
     19562       442  TIP3      H2            -10.9510435296      -20.8090968213       26.6706111367  TIP3      282             0.0000000000
     19563       443  TIP3      OH2            -8.4975169043      -23.0949180532       26.3528196886  TIP3      283             0.0000000000
     19564       443  TIP3      H1             -9.0113173155      -22.2611050000       26.3857424421  TIP3      283             0.0000000000
     19565       443  TIP3      H2             -9.0306985259      -23.6961971333       26.8911823862  TIP3      283             0.0000000000
     19566       444  TIP3      OH2            -8.1277567335      -19.0858742017       33.1708774546  TIP3      284             0.0000000000
     19567       444  TIP3      H1             -7.5865484237      -18.4156680662       32.7289196082  TIP3      284             0.0000000000
     19568       444  TIP3      H2             -7.4708486379      -19.4915096334       33.7579298100  TIP3      284             0.0000000000
     19569       445  TIP3      OH2            -9.1356852929      -18.5027032342       26.5040907047  TIP3      285             0.0000000000
     19570       445  TIP3      H1             -9.9859671829      -18.0806603670       26.2805154716  TIP3      285             0.0000000000
     19571       445  TIP3      H2             -8.5721977866      -18.1464009898       25.7970203733  TIP3      285             0.0000000000
     19572       446  TIP3      OH2            -4.8117580639      -22.9590957297       32.3563680523  TIP3      286             0.0000000000
     19573       446  TIP3      H1             -5.1819521022      -23.4485274114       33.1201093744  TIP3      286             0.0000000000
     19574       446  TIP3      H2             -4.0844205731      -23.5320528949       32.0550814653  TIP3      286             0.0000000000
     19575       447  TIP3      OH2            -2.4672414366      -22.1059796370       21.7572967230  TIP3      287             0.0000000000
     19576       447  TIP3      H1             -2.2573521134      -22.6357764877       22.5608408706  TIP3      287             0.0000000000
     19577       447  TIP3      H2             -3.3627775229      -21.7922002421       21.9617584631  TIP3      287             0.0000000000
     19578       448  TIP3      OH2            -1.8220993809      -18.3049800710       34.6744451419  TIP3      288             0.0000000000
     19579       448  TIP3      H1             -2.6276805106      -18.7610873825       34.3644383662  TIP3      288             0.0000000000
     19580       448  TIP3      H2             -1.7455839021      -17.5962974881       33.9869910664  TIP3      288             0.0000000000
     19581       449  TIP3      OH2             2.2316140542      -17.5406968087       21.9946105437  TIP3      289             0.0000000000
     19582       449  TIP3      H1              1.9563752070      -17.7287770589       21.0709860292  TIP3      289             0.0000000000
     19583       449  TIP3      H2              1.6791817041      -16.7423570050       22.1408214203  TIP3      289             0.0000000000
     19584       450  TIP3      OH2           -13.6138125049      -31.4496389907       34.1585175956  TIP3      290             0.0000000000
     19585       450  TIP3      H1            -14.2695858731      -31.0880884441       34.7801163920  TIP3      290             0.0000000000
     19586       450  TIP3      H2            -13.6023595055      -32.3975103309       34.3802336119  TIP3      290             0.0000000000
     19587       451  TIP3      OH2            -1.4372780230      -23.3593854992       23.7905131517  TIP3      291             0.0000000000
     19588       451  TIP3      H1             -1.6631217901      -23.8697706261       24.5891338124  TIP3      291             0.0000000000
     19589       451  TIP3      H2             -0.4879611008      -23.1875233395       23.9317110799  TIP3      291             0.0000000000
     19590       452  TIP3      OH2           -14.0322539599      -20.1172386373       33.0996468397  TIP3      292             0.0000000000
     19591       452  TIP3      H1            -13.3124579015      -20.7699643653       33.2076760493  TIP3      292             0.0000000000
     19592       452  TIP3      H2            -13.6012532272      -19.3447645399       33.5264039388  TIP3      292             0.0000000000
     19593       453  TIP3      OH2            -4.8967155308      -31.2440904799       33.0462178491  TIP3      293             0.0000000000
     19594       453  TIP3      H1             -4.1244900007      -31.1026060182       33.6209429231  TIP3      293             0.0000000000
     19595       453  TIP3      H2             -5.2219597986      -32.1149056895       33.3812290338  TIP3      293             0.0000000000
     19596       454  TIP3      OH2            -4.0549291763      -31.3681223593       25.3719995462  TIP3      294             0.0000000000
     19597       454  TIP3      H1             -4.5423234711      -31.3580503472       24.5320663278  TIP3      294             0.0000000000
     19598       454  TIP3      H2             -3.3996579435      -32.0444500307       25.1689111809  TIP3      294             0.0000000000
     19599       455  TIP3      OH2            -7.2017877461      -29.8461700238       25.2639496131  TIP3      295             0.0000000000
     19600       455  TIP3      H1             -6.3641494057      -29.3881883904       25.4663313558  TIP3      295             0.0000000000
     19601       455  TIP3      H2             -7.4852466529      -30.1583194834       26.1500425180  TIP3      295             0.0000000000
     19602       456  TIP3      OH2            -6.4358457116      -29.0406021150       34.4693256632  TIP3      296             0.0000000000
     19603       456  TIP3      H1             -6.2355797174      -28.5240302632       35.2865367110  TIP3      296             0.0000000000
     19604       456  TIP3      H2             -6.1507666100      -29.9364063340       34.7084707913  TIP3      296             0.0000000000
     19605       457  TIP3      OH2            -6.0365010784      -33.3194574458       26.1033094687  TIP3      297             0.0000000000
     19606       457  TIP3      H1             -6.4154871974      -32.4411062667       26.2691438748  TIP3      297             0.0000000000
     19607       457  TIP3      H2             -5.8494654166      -33.2786067410       25.1203466698  TIP3      297             0.0000000000
     19608       458  TIP3      OH2           -10.8687537830      -31.9984369757       22.9921507208  TIP3      298             0.0000000000
     19609       458  TIP3      H1            -10.8729083766      -31.1768113835       23.5051998516  TIP3      298             0.0000000000
     19610       458  TIP3      H2             -9.9101854656      -32.1822688716       23.0642302309  TIP3      298             0.0000000000
     19611       459  TIP3      OH2            -0.6420278666      -31.1880252215       35.3081360685  TIP3      299             0.0000000000
     19612       459  TIP3      H1             -1.5133991907      -30.7705798858       35.1163380960  TIP3      299             0.0000000000
     19613       459  TIP3      H2             -0.2551347439      -31.1824221476       34.4198933232  TIP3      299             0.0000000000
     19614       460  TIP3      OH2            -1.4882796596      -27.5530495797       29.1241754835  TIP3      300             0.0000000000
     19615       460  TIP3      H1             -2.1693400375      -28.2290400343       29.2807322801  TIP3      300             0.0000000000
     19616       460  TIP3      H2             -0.7219895162      -28.0121292262       29.5352546715  TIP3      300             0.0000000000
     19617       461  TIP3      OH2            -0.3470775867      -17.9153411928       30.8225031072  TIP3      301             0.0000000000
     19618       461  TIP3      H1             -0.6592239407      -17.4705437087       30.0003474944  TIP3      301             0.0000000000
     19619       461  TIP3      H2              0.5877404171      -17.6297466958       30.7905536960  TIP3      301             0.0000000000
     19620       462  TIP3      OH2           -14.1613094654      -33.6431198418       29.1977237539  TIP3      302             0.0000000000
     19621       462  TIP3      H1            -13.8720302876      -33.9234656131       28.3093093507  TIP3      302             0.0000000000
     19622       462  TIP3      H2            -13.5231724003      -34.1954005219       29.7068125882  TIP3      302             0.0000000000
     19623       463  TIP3      OH2           -14.1548444402      -20.7068410119       25.0611349033  TIP3      303             0.0000000000
     19624       463  TIP3      H1            -14.2083705297      -20.3931590387       25.9747488406  TIP3      303             0.0000000000
     19625       463  TIP3      H2            -14.2501573827      -19.8606138629       24.5852705258  TIP3      303             0.0000000000
     19626       464  TIP3      OH2           -14.9690754357      -17.4782993113       37.5996808824  TIP3      304             0.0000000000
     19627       464  TIP3      H1            -14.1147204173      -17.5042659648       38.0782223923  TIP3      304             0.0000000000
     19628       464  TIP3      H2            -15.1657527896      -18.4266430084       37.5299588930  TIP3      304             0.0000000000
     19629       465  TIP3      OH2            -9.4458965007      -18.4977217492       38.7381812383  TIP3      305             0.0000000000
     19630       465  TIP3      H1             -8.9104033373      -19.3054033730       38.6443238529  TIP3      305             0.0000000000
     19631       465  TIP3      H2            -10.3204270879      -18.8542290942       38.4771992843  TIP3      305             0.0000000000
     19632       466  TIP3      OH2            -4.2051632903      -20.1607249178       37.6708354817  TIP3      306             0.0000000000
     19633       466  TIP3      H1             -4.4087299707      -20.8406142622       38.3410537589  TIP3      306             0.0000000000
     19634       466  TIP3      H2             -3.2409676672      -20.1508007658       37.8036728355  TIP3      306             0.0000000000
     19635       467  TIP3      OH2            -2.0166735656      -19.8064644103       20.3816184588  TIP3      307             0.0000000000
     19636       467  TIP3      H1             -2.0093703588      -20.6178589241       20.9445464674  TIP3      307             0.0000000000
     19637       467  TIP3      H2             -1.1825511329      -19.3700796612       20.5546195888  TIP3      307             0.0000000000
     19638       468  TIP3      OH2           -15.3684904873      -24.1218220579       37.7410252560  TIP3      308             0.0000000000
     19639       468  TIP3      H1            -15.8459011873      -24.9511660350       37.8647246093  TIP3      308             0.0000000000
     19640       468  TIP3      H2            -15.7817913563      -23.7342837757       36.9440383267  TIP3      308             0.0000000000
     19641       469  TIP3      OH2            -8.5882285896      -23.7394315194       36.9501936647  TIP3      309             0.0000000000
     19642       469  TIP3      H1             -9.0078529851      -23.2642350936       36.2038108181  TIP3      309             0.0000000000
     19643       469  TIP3      H2             -8.7837443728      -24.6932257918       36.7382711345  TIP3      309             0.0000000000
     19644       470  TIP3      OH2            -2.8347039118      -23.7496400544       35.2688962757  TIP3      310             0.0000000000
     19645       470  TIP3      H1             -1.9420526486      -23.3665120827       35.1097331254  TIP3      310             0.0000000000
     19646       470  TIP3      H2             -3.3541907063      -22.9324682621       35.1469543070  TIP3      310             0.0000000000
     19647       471  TIP3      OH2           -13.4992873913      -27.1045768659       37.3948839173  TIP3      311             0.0000000000
     19648       471  TIP3      H1            -13.6848552611      -27.8254855247       38.0364291359  TIP3      311             0.0000000000
     19649       471  TIP3      H2            -13.3664295863      -26.3472830767       37.9983511152  TIP3      311             0.0000000000
     19650       472  TIP3      OH2            -9.4661625208      -26.1506154877       23.0213738209  TIP3      312             0.0000000000
     19651       472  TIP3      H1             -9.5717380951      -27.0053448842       22.5389329000  TIP3      312             0.0000000000
     19652       472  TIP3      H2             -9.1773205784      -25.5742251362       22.3046523543  TIP3      312             0.0000000000
     19653       473  TIP3      OH2           -10.5693880972      -27.5391255638       34.6678340630  TIP3      313             0.0000000000
     19654       473  TIP3      H1            -10.9044897627      -27.0951581338       35.4655576925  TIP3      313             0.0000000000
     19655       473  TIP3      H2             -9.9036648479      -26.9119969480       34.3433230774  TIP3      313             0.0000000000
     19656       474  TIP3      OH2            -4.9022660718      -24.8152107851       38.1578721764  TIP3      314             0.0000000000
     19657       474  TIP3      H1             -4.3981500172      -25.4879274967       37.6507789667  TIP3      314             0.0000000000
     19658       474  TIP3      H2             -5.4700365161      -25.4092334251       38.6987628979  TIP3      314             0.0000000000
     19659       475  TIP3      OH2            -9.8465607201      -29.9355564734       35.4501499845  TIP3      315             0.0000000000
     19660       475  TIP3      H1             -9.5857936945      -30.5096927211       34.7063087755  TIP3      315             0.0000000000
     19661       475  TIP3      H2             -9.8644975134      -29.0508291245       35.0316240758  TIP3      315             0.0000000000
     19662       476  TIP3      OH2            -9.2148522413      -31.8241594396       33.3794854590  TIP3      316             0.0000000000
     19663       476  TIP3      H1             -8.6662838838      -32.1410782563       32.6478790046  TIP3      316             0.0000000000
     19664       476  TIP3      H2            -10.1180526906      -32.0213620320       33.0236670862  TIP3      316             0.0000000000
     19665       477  TIP3      OH2            -7.9382005876      -26.1457485496       33.5844807009  TIP3      317             0.0000000000
     19666       477  TIP3      H1             -6.9987582995      -25.9110444323       33.5026367209  TIP3      317             0.0000000000
     19667       477  TIP3      H2             -8.4412192636      -25.3394153658       33.3774083843  TIP3      317             0.0000000000
     19668       478  TIP3      OH2            -3.2142491291      -28.7537314618       38.5663067525  TIP3      318             0.0000000000
     19669       478  TIP3      H1             -3.2249886636      -29.5860955427       39.0677744202  TIP3      318             0.0000000000
     19670       478  TIP3      H2             -2.2768739719      -28.4722459049       38.6202943300  TIP3      318             0.0000000000
     19671       479  TIP3      OH2            -2.1867886719      -25.6523089928       37.0345068770  TIP3      319             0.0000000000
     19672       479  TIP3      H1             -2.4844870261      -25.0117326883       36.3436616243  TIP3      319             0.0000000000
     19673       479  TIP3      H2             -1.2344316602      -25.7707858261       36.8259037488  TIP3      319             0.0000000000
     19674       480  TIP3      OH2           -11.1239096305      -29.1407246143       38.0236622968  TIP3      320             0.0000000000
     19675       480  TIP3      H1            -11.8635347461      -29.4396378183       37.4725661549  TIP3      320             0.0000000000
     19676       480  TIP3      H2            -10.4441140420      -28.9430992107       37.3609380389  TIP3      320             0.0000000000
     19677       481  TIP3      OH2            -8.4656012431      -34.2583583970       34.1489503302  TIP3      321             0.0000000000
     19678       481  TIP3      H1             -8.8094980049      -33.3447715565       34.0798655103  TIP3      321             0.0000000000
     19679       481  TIP3      H2             -9.2267284293      -34.7892103957       33.8462902652  TIP3      321             0.0000000000
     19680       482  TIP3      OH2            -7.7583719383      -31.4833199607       36.7547926664  TIP3      322             0.0000000000
     19681       482  TIP3      H1             -7.5664944765      -30.9188335364       37.5200917094  TIP3      322             0.0000000000
     19682       482  TIP3      H2             -8.1301160394      -30.7976399068       36.1777578902  TIP3      322             0.0000000000
     19683       483  TIP3      OH2            -4.5702265929      -30.8225149117       36.5115233232  TIP3      323             0.0000000000
     19684       483  TIP3      H1             -5.3236680891      -31.4184067559       36.6310631722  TIP3      323             0.0000000000
     19685       483  TIP3      H2             -4.0517230881      -31.0172353600       37.3229213644  TIP3      323             0.0000000000
     19686       484  TIP3      OH2            -2.7649358951      -31.9241107490       38.3910143166  TIP3      324             0.0000000000
     19687       484  TIP3      H1             -2.8356503747      -32.9003545418       38.3423480834  TIP3      324             0.0000000000
     19688       484  TIP3      H2             -3.0937892997      -31.7259637110       39.3031461238  TIP3      324             0.0000000000
     19689       485  TIP3      OH2           -13.5593880473      -31.1284335357       37.4593202185  TIP3      325             0.0000000000
     19690       485  TIP3      H1            -13.4000410336      -31.9503965948       36.9704691677  TIP3      325             0.0000000000
     19691       485  TIP3      H2            -13.5883852868      -31.4669725840       38.3868527100  TIP3      325             0.0000000000
     19692       486  TIP3      OH2            -7.6999612243       35.2712540143       36.6344366512  TIP3      326             0.0000000000
     19693       486  TIP3      H1             -6.9224881751       34.6955398540       36.7175868185  TIP3      326             0.0000000000
     19694       486  TIP3      H2             -7.7146116858       35.4477103642       35.6698661552  TIP3      326             0.0000000000
     19695       487  TIP3      OH2            -8.6714383110      -34.0692382862       39.0354411937  TIP3      327             0.0000000000
     19696       487  TIP3      H1             -8.3482181422      -34.3560301422       38.1438561473  TIP3      327             0.0000000000
     19697       487  TIP3      H2             -9.0119100126      -33.1677631357       38.8823972554  TIP3      327             0.0000000000
     19698       488  TIP3      OH2            -8.7198265703      -16.2375233053       21.6404672970  TIP3      328             0.0000000000
     19699       488  TIP3      H1             -8.2092643822      -17.0544904340       21.7327781799  TIP3      328             0.0000000000
     19700       488  TIP3      H2             -8.3266936887      -15.8897873470       20.8333327541  TIP3      328             0.0000000000
     19701       489  TIP3      OH2           -16.3517479269      -16.7476980945       26.0735239436  TIP3      329             0.0000000000
     19702       489  TIP3      H1            -17.0834008480      -17.2539852274       25.6525373433  TIP3      329             0.0000000000
     19703       489  TIP3      H2            -15.9837767163      -17.3854203662       26.7104413060  TIP3      329             0.0000000000
     19704       490  TIP3      OH2           -14.8176035786      -18.3366862885       28.0290779760  TIP3      330             0.0000000000
     19705       490  TIP3      H1            -15.7531488457      -18.5196406367       28.3085618707  TIP3      330             0.0000000000
     19706       490  TIP3      H2            -14.4774714255      -17.8336391010       28.7817027758  TIP3      330             0.0000000000
     19707       491  TIP3      OH2             2.1881069334      -17.1272306043       30.9481628671  TIP3      331             0.0000000000
     19708       491  TIP3      H1              2.4255715649      -16.4767560815       31.6488799947  TIP3      331             0.0000000000
     19709       491  TIP3      H2              2.5414512316      -16.6843722680       30.1670448213  TIP3      331             0.0000000000
     19710       492  TIP3      OH2             1.6395793113      -17.9309716223       34.0649003437  TIP3      332             0.0000000000
     19711       492  TIP3      H1              0.8177227745      -18.4441624096       34.1468431901  TIP3      332             0.0000000000
     19712       492  TIP3      H2              2.0582056872      -18.1518223789       34.9146154472  TIP3      332             0.0000000000
     19713       493  TIP3      OH2             0.5482600054      -22.2912323295       38.8748457668  TIP3      333             0.0000000000
     19714       493  TIP3      H1             -0.0492541254      -22.5091834502       39.6197530481  TIP3      333             0.0000000000
     19715       493  TIP3      H2              1.1462250428      -21.6259343853       39.2699834077  TIP3      333             0.0000000000
     19716       494  TIP3      OH2             1.4497657655      -23.6316325730       24.0819945440  TIP3      334             0.0000000000
     19717       494  TIP3      H1              2.3904639614      -23.4010724938       23.9399919198  TIP3      334             0.0000000000
     19718       494  TIP3      H2              1.5341335887      -24.4179398315       24.6492402268  TIP3      334             0.0000000000
     19719       495  TIP3      OH2             2.1441187367      -25.9692582402       25.8653873818  TIP3      335             0.0000000000
     19720       495  TIP3      H1              1.2766663947      -26.3062827788       26.1885792435  TIP3      335             0.0000000000
     19721       495  TIP3      H2              2.5849519378      -25.7500579058       26.7192301576  TIP3      335             0.0000000000
     19722       496  TIP3      OH2             1.6035078841      -23.1340301117       31.1001567849  TIP3      336             0.0000000000
     19723       496  TIP3      H1              2.2111427083      -23.8283528423       30.7529748466  TIP3      336             0.0000000000
     19724       496  TIP3      H2              1.9644877305      -22.3359242715       30.6648563622  TIP3      336             0.0000000000
     19725       497  TIP3      OH2             0.1604017079      -20.3036158347       33.2477286822  TIP3      337             0.0000000000
     19726       497  TIP3      H1             -0.4990429247      -19.8811035776       33.8294445253  TIP3      337             0.0000000000
     19727       497  TIP3      H2             -0.3722016569      -20.4478642594       32.4194522798  TIP3      337             0.0000000000
     19728       498  TIP3      OH2            -0.0206329707      -27.3787662838       26.7789393739  TIP3      338             0.0000000000
     19729       498  TIP3      H1             -0.5647225532      -28.1150357256       26.4450453456  TIP3      338             0.0000000000
     19730       498  TIP3      H2             -0.3294545927      -27.3383944209       27.7070648107  TIP3      338             0.0000000000
     19731       499  TIP3      OH2           -15.5456578702      -25.4056851424       30.6823084474  TIP3      339             0.0000000000
     19732       499  TIP3      H1            -15.4602845873      -25.7243288929       29.7676199685  TIP3      339             0.0000000000
     19733       499  TIP3      H2            -14.6396408414      -25.6212855285       31.0243968412  TIP3      339             0.0000000000
     19734       500  TIP3      OH2             0.6058400429      -25.4180924970       36.5709764520  TIP3      340             0.0000000000
     19735       500  TIP3      H1              0.9725465379      -26.3097433592       36.3682930235  TIP3      340             0.0000000000
     19736       500  TIP3      H2              1.2855170185      -24.8399212523       36.1851037338  TIP3      340             0.0000000000
     19737       501  TIP3      OH2             1.5717344722      -27.7636151483       35.6956196882  TIP3      341             0.0000000000
     19738       501  TIP3      H1              0.6952424838      -28.1586889256       35.9267994157  TIP3      341             0.0000000000
     19739       501  TIP3      H2              2.0524377574      -27.9811387253       36.5246865244  TIP3      341             0.0000000000
     19740       502  TIP3      OH2            -0.1158839262      -30.6902904443       21.6701505749  TIP3      342             0.0000000000
     19741       502  TIP3      H1              0.7324233229      -31.1700418054       21.6326164776  TIP3      342             0.0000000000
     19742       502  TIP3      H2             -0.7116693101      -31.4566003383       21.5749798752  TIP3      342             0.0000000000
     19743       503  TIP3      OH2            -1.1583088442      -29.6897110978       25.0785660675  TIP3      343             0.0000000000
     19744       503  TIP3      H1             -1.0781752371      -30.5900982042       25.4575620438  TIP3      343             0.0000000000
     19745       503  TIP3      H2             -0.6293537422      -29.7959935444       24.2691059638  TIP3      343             0.0000000000
     19746       504  TIP3      OH2             0.0763219559      -29.2765225864       30.3311178961  TIP3      344             0.0000000000
     19747       504  TIP3      H1              1.0474365953      -29.1906072155       30.4853397260  TIP3      344             0.0000000000
     19748       504  TIP3      H2             -0.2358712250      -29.1608850556       31.2446520068  TIP3      344             0.0000000000
     19749       505  TIP3      OH2            -0.0085963279      -28.4328232490       33.0786980779  TIP3      345             0.0000000000
     19750       505  TIP3      H1             -0.7310967476      -28.1184454241       33.6685944604  TIP3      345             0.0000000000
     19751       505  TIP3      H2              0.5521968329      -27.6306593163       33.0580495842  TIP3      345             0.0000000000
     19752       506  TIP3      OH2           -15.7585635976      -29.9348835610       36.4833210862  TIP3      346             0.0000000000
     19753       506  TIP3      H1            -14.9023584465      -30.1123439963       36.9248557245  TIP3      346             0.0000000000
     19754       506  TIP3      H2            -16.1830620443      -30.8085838228       36.5702525297  TIP3      346             0.0000000000
     19755       507  TIP3      OH2             2.5562034424      -34.2212726121       38.5926031250  TIP3      347             0.0000000000
     19756       507  TIP3      H1              2.0143008549      -34.9741946018       38.3064722611  TIP3      347             0.0000000000
     19757       507  TIP3      H2              2.2319378828      -33.5726319237       37.9205850445  TIP3      347             0.0000000000
     19758       508  TIP3      OH2            -0.2252511182      -32.4103424143       25.1765445200  TIP3      348             0.0000000000
     19759       508  TIP3      H1             -0.2140490715      -32.7556105402       26.0813215972  TIP3      348             0.0000000000
     19760       508  TIP3      H2             -0.6916982905      -33.1139927065       24.6825945534  TIP3      348             0.0000000000
     19761       509  TIP3      OH2           -14.7267801651      -31.1907817002       29.9303013951  TIP3      349             0.0000000000
     19762       509  TIP3      H1            -14.5731006868      -32.1510455207       29.7487650599  TIP3      349             0.0000000000
     19763       509  TIP3      H2            -13.8089477909      -30.8524560184       29.9515430651  TIP3      349             0.0000000000
     19764       510  TIP3      OH2           -16.1248254101      -28.7226133536       30.9356326366  TIP3      350             0.0000000000
     19765       510  TIP3      H1            -15.4856586473      -29.2182653620       30.3933792838  TIP3      350             0.0000000000
     19766       510  TIP3      H2            -15.9576624375      -27.8146733180       30.6548215592  TIP3      350             0.0000000000
     19767       511  TIP3      OH2             1.0188738620      -32.7788073818       36.9982872388  TIP3      351             0.0000000000
     19768       511  TIP3      H1              0.3202009659      -32.1051006400       37.1227960445  TIP3      351             0.0000000000
     19769       511  TIP3      H2              1.0880192831      -32.8621494676       36.0327970307  TIP3      351             0.0000000000
     19770       512  TIP3      OH2             2.3367514685      -32.2844369458       21.8281504989  TIP3      352             0.0000000000
     19771       512  TIP3      H1              1.8572307431      -33.1056157851       21.6067112899  TIP3      352             0.0000000000
     19772       512  TIP3      H2              2.9497455828      -32.1844624150       21.0863905800  TIP3      352             0.0000000000
     19773       513  TIP3      OH2           -16.0067488723      -32.7734662569       24.7993636105  TIP3      353             0.0000000000
     19774       513  TIP3      H1            -16.6324726523      -32.1890685302       25.2639002495  TIP3      353             0.0000000000
     19775       513  TIP3      H2            -16.0579525432      -32.4344245955       23.8996182224  TIP3      353             0.0000000000
     19776       514  TIP3      OH2            -1.2270801004      -17.7131796924       26.6400569391  TIP3      354             0.0000000000
     19777       514  TIP3      H1             -0.3561197169      -17.7605573894       26.2103380869  TIP3      354             0.0000000000
     19778       514  TIP3      H2             -1.0728180281      -17.0575666567       27.3499532494  TIP3      354             0.0000000000
     19779       515  TIP3      OH2           -15.7684583100      -34.1100443573       32.6746589345  TIP3      355             0.0000000000
     19780       515  TIP3      H1            -16.0388540546      -34.2222385093       33.5956405767  TIP3      355             0.0000000000
     19781       515  TIP3      H2            -16.1149796561      -33.2449811943       32.4154136547  TIP3      355             0.0000000000
     19782       516  TIP3      OH2           -13.6327406247      -20.5409918789       36.8073998689  TIP3      356             0.0000000000
     19783       516  TIP3      H1            -13.8010837332      -19.6868623593       36.3583002133  TIP3      356             0.0000000000
     19784       516  TIP3      H2            -13.5934427386      -20.3225214332       37.7581273492  TIP3      356             0.0000000000
     19785       517  TIP3      OH2           -10.8403912989      -19.8011436014       32.9903329646  TIP3      357             0.0000000000
     19786       517  TIP3      H1            -11.2742136244      -18.9736344685       33.2910772621  TIP3      357             0.0000000000
     19787       517  TIP3      H2             -9.9256026959      -19.5852034546       33.2499948129  TIP3      357             0.0000000000
     19788       518  TIP3      OH2            -6.6232548075      -18.0473596308       36.1287895501  TIP3      358             0.0000000000
     19789       518  TIP3      H1             -6.6908212405      -18.1872573781       37.0889908595  TIP3      358             0.0000000000
     19790       518  TIP3      H2             -5.6869581198      -17.7546807198       36.0746120200  TIP3      358             0.0000000000
     19791       519  TIP3      OH2            -4.2318497644      -16.9095025521       36.0393795724  TIP3      359             0.0000000000
     19792       519  TIP3      H1             -3.8284500479      -16.8168835341       35.1591073151  TIP3      359             0.0000000000
     19793       519  TIP3      H2             -4.3071906553      -15.9908912514       36.3377950477  TIP3      359             0.0000000000
     19794       520  TIP3      OH2             1.3197882821      -34.2281529418       34.6505725232  TIP3      360             0.0000000000
     19795       520  TIP3      H1              0.7133403574      -33.5751677631       34.2597283195  TIP3      360             0.0000000000
     19796       520  TIP3      H2              1.0007443677      -35.0349419872       34.2198481799  TIP3      360             0.0000000000
     19797       521  TIP3      OH2           -13.4908108906      -15.6575994028       33.2649685092  TIP3      361             0.0000000000
     19798       521  TIP3      H1            -13.6774740038      -15.9142503784       32.3506947399  TIP3      361             0.0000000000
     19799       521  TIP3      H2            -13.1416939598      -16.4693086955       33.7076219813  TIP3      361             0.0000000000
     19800       522  TIP3      OH2           -10.6402924919      -16.5286094389       32.4233369839  TIP3      362             0.0000000000
     19801       522  TIP3      H1            -11.2579356156      -15.9636558944       32.9110396291  TIP3      362             0.0000000000
     19802       522  TIP3      H2            -10.7645758612      -16.2011205368       31.5174742360  TIP3      362             0.0000000000
     19803       523  TIP3      OH2            -6.2244714018      -16.9559551485       31.5940020926  TIP3      363             0.0000000000
     19804       523  TIP3      H1             -6.8673103589      -16.5377231366       30.9973378292  TIP3      363             0.0000000000
     19805       523  TIP3      H2             -5.9901926473      -16.2449643688       32.2162239602  TIP3      363             0.0000000000
     19806       524  TIP3      OH2            -4.2933150576      -18.3431896172       33.1092092743  TIP3      364             0.0000000000
     19807       524  TIP3      H1             -4.9133425948      -18.0098243702       32.4192359086  TIP3      364             0.0000000000
     19808       524  TIP3      H2             -3.5366826702      -17.7545379229       32.9111736242  TIP3      364             0.0000000000
     19809       525  TIP3      OH2            -1.9388911279      -16.5940064382       32.6557865969  TIP3      365             0.0000000000
     19810       525  TIP3      H1             -1.7277509837      -15.6387392616       32.6323282000  TIP3      365             0.0000000000
     19811       525  TIP3      H2             -1.5833443584      -16.8976900908       31.7892946034  TIP3      365             0.0000000000
     19812       526  TIP3      OH2           -13.4980744135      -17.7181319521       30.8335223242  TIP3      366             0.0000000000
     19813       526  TIP3      H1            -13.7956866575      -18.4962787341       31.3407798903  TIP3      366             0.0000000000
     19814       526  TIP3      H2            -12.7412036550      -18.0625788585       30.3042763570  TIP3      366             0.0000000000
     19815       527  TIP3      OH2           -11.5617317478      -18.5979774851       29.1677907550  TIP3      367             0.0000000000
     19816       527  TIP3      H1            -11.8306296891      -19.4940075824       29.4183537885  TIP3      367             0.0000000000
     19817       527  TIP3      H2            -10.6467978370      -18.5784877886       29.5486424045  TIP3      367             0.0000000000
     19818       528  TIP3      OH2            -9.1648025477      -18.4354781568       30.3504402444  TIP3      368             0.0000000000
     19819       528  TIP3      H1             -8.6168279973      -19.2045477411       30.1222256042  TIP3      368             0.0000000000
     19820       528  TIP3      H2             -9.2230746817      -18.5218958719       31.3216273914  TIP3      368             0.0000000000
     19821       529  TIP3      OH2            -5.1025236415      -32.9437592011       29.1509024008  TIP3      369             0.0000000000
     19822       529  TIP3      H1             -5.8599063292      -33.1898442051       29.6888857676  TIP3      369             0.0000000000
     19823       529  TIP3      H2             -5.4419380512      -33.1181278686       28.2515027878  TIP3      369             0.0000000000
     19824       530  TIP3      OH2            -0.7474047972      -34.3000728386       29.2739812683  TIP3      370             0.0000000000
     19825       530  TIP3      H1             -0.3024719703      -34.0139223429       28.4532318340  TIP3      370             0.0000000000
     19826       530  TIP3      H2             -1.6438375285      -34.4361452202       28.8882615953  TIP3      370             0.0000000000
     19827       531  TIP3      OH2             1.3517299026      -33.7225403624       27.1019224071  TIP3      371             0.0000000000
     19828       531  TIP3      H1              1.9021405044      -33.9187294650       26.3212443331  TIP3      371             0.0000000000
     19829       531  TIP3      H2              1.6447874627      -32.8071557847       27.3192776686  TIP3      371             0.0000000000
     19830       532  TIP3      OH2           -13.4020412584      -34.2711554145       26.7059849798  TIP3      372             0.0000000000
     19831       532  TIP3      H1            -14.1068574113      -34.6572386771       26.1560330980  TIP3      372             0.0000000000
     19832       532  TIP3      H2            -12.7751503165      -35.0113221258       26.7954215766  TIP3      372             0.0000000000
     19833       533  TIP3      OH2            -8.9214855523      -34.3905114449       26.3751474716  TIP3      373             0.0000000000
     19834       533  TIP3      H1             -8.1836028373      -34.1351699672       25.8064424481  TIP3      373             0.0000000000
     19835       533  TIP3      H2             -8.4644925326      -34.3461059339       27.2410750237  TIP3      373             0.0000000000
     19836       534  TIP3      OH2            -3.0971316095      -34.5609425030       28.0022719520  TIP3      374             0.0000000000
     19837       534  TIP3      H1             -3.0791128013      -33.8663360231       27.3341137865  TIP3      374             0.0000000000
     19838       534  TIP3      H2             -3.8396976745      -35.0735876879       27.6072236658  TIP3      374             0.0000000000
     19839       535  TIP3      OH2            -2.2732132488      -34.2889028236       23.6452250954  TIP3      375             0.0000000000
     19840       535  TIP3      H1             -2.8240089477      -33.9699773928       22.8880682362  TIP3      375             0.0000000000
     19841       535  TIP3      H2             -2.4052925933      -35.2502297140       23.5162036797  TIP3      375             0.0000000000
     19842       536  TIP3      OH2           -15.0410716169      -18.2285628064       23.6061036202  TIP3      376             0.0000000000
     19843       536  TIP3      H1            -15.1454540181      -17.7949157383       22.7449344779  TIP3      376             0.0000000000
     19844       536  TIP3      H2            -15.6690206135      -17.7270060999       24.1640511790  TIP3      376             0.0000000000
     19845       537  TIP3      OH2            -7.9828450477      -31.8977180476       23.3602625167  TIP3      377             0.0000000000
     19846       537  TIP3      H1             -7.1788774333      -32.4015186106       23.0827094633  TIP3      377             0.0000000000
     19847       537  TIP3      H2             -7.5823741940      -31.1866829709       23.8985114277  TIP3      377             0.0000000000
     19848       538  TIP3      OH2             0.8792891328      -17.9456477294       24.9746955945  TIP3      378             0.0000000000
     19849       538  TIP3      H1              0.9392009795      -18.6827864014       24.3295497885  TIP3      378             0.0000000000
     19850       538  TIP3      H2              0.5166608903      -17.2687308907       24.3802105432  TIP3      378             0.0000000000
     19851       539  TIP3      OH2           -13.7698586293      -33.9009261881       36.2446538594  TIP3      379             0.0000000000
     19852       539  TIP3      H1            -14.2693449809      -34.7100418004       36.4345917398  TIP3      379             0.0000000000
     19853       539  TIP3      H2            -12.9318617976      -34.0179706927       36.7472300008  TIP3      379             0.0000000000
     19854       540  TIP3      OH2           -11.5347604874      -33.9095497243       38.0136769742  TIP3      380             0.0000000000
     19855       540  TIP3      H1            -10.6384360200      -34.0417718218       38.3527223316  TIP3      380             0.0000000000
     19856       540  TIP3      H2            -11.7606148255      -34.8481279395       37.8553258938  TIP3      380             0.0000000000
     19857       541  TIP3      OH2            -3.0136427411      -34.6723140910       37.6021229540  TIP3      381             0.0000000000
     19858       541  TIP3      H1             -3.8428235478      -35.0803891848       37.9255217085  TIP3      381             0.0000000000
     19859       541  TIP3      H2             -2.3907212331      -35.3179140150       37.9640941482  TIP3      381             0.0000000000
     19860       542  TIP3      OH2            -0.1065624748      -18.7794234789       36.5911438364  TIP3      382             0.0000000000
     19861       542  TIP3      H1             -0.9141328702      -18.9233379131       36.0523484195  TIP3      382             0.0000000000
     19862       542  TIP3      H2             -0.2484683965      -17.8294617305       36.7435163080  TIP3      382             0.0000000000
     19863       543  TIP3      OH2            14.2614644227      -24.9678079870       27.0643165640  TIP3      383             0.0000000000
     19864       543  TIP3      H1             14.2828371845      -24.0163852750       26.7871206860  TIP3      383             0.0000000000
     19865       543  TIP3      H2             14.2108193695      -25.3630690506       26.1714061503  TIP3      383             0.0000000000
     19866       544  TIP3      OH2            12.8877855537      -26.3585032617       30.5164667054  TIP3      384             0.0000000000
     19867       544  TIP3      H1             13.3093648219      -26.7705610283       31.2996617675  TIP3      384             0.0000000000
     19868       544  TIP3      H2             12.7959609991      -27.1083749644       29.8949474400  TIP3      384             0.0000000000
     19869       545  TIP3      OH2             5.5607101954      -26.3589794206       31.4259583238  TIP3      385             0.0000000000
     19870       545  TIP3      H1              5.4640719204      -26.8973513412       32.2241740547  TIP3      385             0.0000000000
     19871       545  TIP3      H2              5.9951076581      -25.5456054459       31.7528880341  TIP3      385             0.0000000000
     19872       546  TIP3      OH2            16.6403558498      -23.0636082065       28.5484350381  TIP3      386             0.0000000000
     19873       546  TIP3      H1             17.4832871982      -23.5398599929       28.6128765304  TIP3      386             0.0000000000
     19874       546  TIP3      H2             16.8017852220      -22.4151829722       29.2714219103  TIP3      386             0.0000000000
     19875       547  TIP3      OH2             6.9953956196      -22.0114538378       31.0810817820  TIP3      387             0.0000000000
     19876       547  TIP3      H1              6.4273989240      -21.7774938371       30.3037847463  TIP3      387             0.0000000000
     19877       547  TIP3      H2              7.3530340078      -22.8291656775       30.6786940648  TIP3      387             0.0000000000
     19878       548  TIP3      OH2             3.4121312912      -28.4480547685       25.6604004750  TIP3      388             0.0000000000
     19879       548  TIP3      H1              2.9609727384      -27.5858616225       25.5341644192  TIP3      388             0.0000000000
     19880       548  TIP3      H2              2.6529963606      -29.0318720806       25.7917068499  TIP3      388             0.0000000000
     19881       549  TIP3      OH2             3.6208421730      -26.0021395591       28.1517980618  TIP3      389             0.0000000000
     19882       549  TIP3      H1              3.9499732296      -26.9212482812       28.2658753215  TIP3      389             0.0000000000
     19883       549  TIP3      H2              4.3776857908      -25.5514713382       27.7365232319  TIP3      389             0.0000000000
     19884       550  TIP3      OH2            13.9386171707      -17.6280007868       28.3945504132  TIP3      390             0.0000000000
     19885       550  TIP3      H1             14.7584256616      -18.1624281381       28.2753667036  TIP3      390             0.0000000000
     19886       550  TIP3      H2             13.9725867051      -17.4868039005       29.3563668823  TIP3      390             0.0000000000
     19887       551  TIP3      OH2            11.5198578180      -23.1022661583       31.4230961131  TIP3      391             0.0000000000
     19888       551  TIP3      H1             11.5753652664      -23.5150226395       30.5596409073  TIP3      391             0.0000000000
     19889       551  TIP3      H2             12.4676938154      -22.9521886175       31.6402799565  TIP3      391             0.0000000000
     19890       552  TIP3      OH2            20.5514053964      -31.9566446604       30.9063337682  TIP3      392             0.0000000000
     19891       552  TIP3      H1             20.4541322289      -31.3244323150       31.6479403280  TIP3      392             0.0000000000
     19892       552  TIP3      H2             21.1280229154      -31.4574912727       30.3093743686  TIP3      392             0.0000000000
     19893       553  TIP3      OH2            15.3142524551      -29.0523922495       30.8280018376  TIP3      393             0.0000000000
     19894       553  TIP3      H1             15.4034552615      -30.0050719328       31.0789337000  TIP3      393             0.0000000000
     19895       553  TIP3      H2             15.1441922932      -29.1592585442       29.8728154144  TIP3      393             0.0000000000
     19896       554  TIP3      OH2             8.3413253803      -30.8985024213       28.2084430408  TIP3      394             0.0000000000
     19897       554  TIP3      H1              8.2646815262      -30.2668223787       27.4701298278  TIP3      394             0.0000000000
     19898       554  TIP3      H2              7.8083398478      -31.6391517084       27.8459630774  TIP3      394             0.0000000000
     19899       555  TIP3      OH2            15.5647154337      -30.8006458226       26.6287593657  TIP3      395             0.0000000000
     19900       555  TIP3      H1             16.1086276326      -31.2086569850       27.3375511248  TIP3      395             0.0000000000
     19901       555  TIP3      H2             16.2546171449      -30.3100180967       26.1361293858  TIP3      395             0.0000000000
     19902       556  TIP3      OH2             4.7469189756      -28.3091386475       29.0933901453  TIP3      396             0.0000000000
     19903       556  TIP3      H1              5.4396703997      -28.5288577339       29.7409223875  TIP3      396             0.0000000000
     19904       556  TIP3      H2              5.0748629587      -28.7706244842       28.2991141347  TIP3      396             0.0000000000
     19905       557  TIP3      OH2             9.6276914762      -27.1231769944       27.9529149270  TIP3      397             0.0000000000
     19906       557  TIP3      H1             10.1994608939      -27.6876256489       28.5051579451  TIP3      397             0.0000000000
     19907       557  TIP3      H2              9.0571822022      -27.7950374179       27.5236135891  TIP3      397             0.0000000000
     19908       558  TIP3      OH2            20.6604419925      -30.7114581254       33.5004349146  TIP3      398             0.0000000000
     19909       558  TIP3      H1             19.9808260525      -30.0384444633       33.3097444428  TIP3      398             0.0000000000
     19910       558  TIP3      H2             20.9357686291      -30.4422095830       34.3934436928  TIP3      398             0.0000000000
     19911       559  TIP3      OH2             6.9533513067      -32.3307353275       31.9044496894  TIP3      399             0.0000000000
     19912       559  TIP3      H1              6.6249595997      -31.5833061789       31.3659273153  TIP3      399             0.0000000000
     19913       559  TIP3      H2              6.1436071093      -32.8394228203       32.0619659768  TIP3      399             0.0000000000
     19914       560  TIP3      OH2            14.0377604741      -22.5931518722       25.9628072219  TIP3      400             0.0000000000
     19915       560  TIP3      H1             13.9635050751      -22.4726689276       24.9876444494  TIP3      400             0.0000000000
     19916       560  TIP3      H2             13.7567405162      -21.7064042501       26.2696060009  TIP3      400             0.0000000000
     19917       561  TIP3      OH2             9.2435525325      -24.4755167064       31.8767510913  TIP3      401             0.0000000000
     19918       561  TIP3      H1              8.7252643153      -23.9074116922       32.4862676722  TIP3      401             0.0000000000
     19919       561  TIP3      H2              9.9745233385      -23.8522996121       31.6745230271  TIP3      401             0.0000000000
     19920       562  TIP3      OH2            17.3335491435      -31.1474312400       28.9088721717  TIP3      402             0.0000000000
     19921       562  TIP3      H1             17.3042898816      -31.8715113254       29.5623212988  TIP3      402             0.0000000000
     19922       562  TIP3      H2             18.0082440004      -30.5540266378       29.2989995070  TIP3      402             0.0000000000
     19923       563  TIP3      OH2             6.7372062509      -29.9805947592       30.1871945417  TIP3      403             0.0000000000
     19924       563  TIP3      H1              7.3839143435      -29.3215816065       30.4788377374  TIP3      403             0.0000000000
     19925       563  TIP3      H2              7.2318104616      -30.3715057477       29.4294448183  TIP3      403             0.0000000000
     19926       564  TIP3      OH2             8.0696726166      -22.6692605203       33.4758080506  TIP3      404             0.0000000000
     19927       564  TIP3      H1              7.7617689950      -22.3018835443       32.6049307791  TIP3      404             0.0000000000
     19928       564  TIP3      H2              7.1986811155      -22.7755641486       33.9157473978  TIP3      404             0.0000000000
     19929       565  TIP3      OH2             4.0247146374      -22.8493003661       23.6454449526  TIP3      405             0.0000000000
     19930       565  TIP3      H1              4.1541068649      -22.0117868704       23.1789636612  TIP3      405             0.0000000000
     19931       565  TIP3      H2              4.1721945467      -22.4812676187       24.5411681186  TIP3      405             0.0000000000
     19932       566  TIP3      OH2            17.4195976292      -21.3452268308       30.6728387829  TIP3      406             0.0000000000
     19933       566  TIP3      H1             16.5079569409      -20.9766925988       30.7644633615  TIP3      406             0.0000000000
     19934       566  TIP3      H2             17.8984069586      -20.5101513137       30.5496717423  TIP3      406             0.0000000000
     19935       567  TIP3      OH2            18.1099888469      -32.5618100826       32.4618679347  TIP3      407             0.0000000000
     19936       567  TIP3      H1             17.4402420730      -32.2154599845       31.8425099028  TIP3      407             0.0000000000
     19937       567  TIP3      H2             18.8100449150      -32.8612260364       31.8579018131  TIP3      407             0.0000000000
     19938       568  TIP3      OH2            11.1095152362      -34.1992559712       29.4089051039  TIP3      408             0.0000000000
     19939       568  TIP3      H1             11.4743698690      -35.0067012834       29.8128294700  TIP3      408             0.0000000000
     19940       568  TIP3      H2             10.4665317993      -33.9018331354       30.0771104423  TIP3      408             0.0000000000
     19941       569  TIP3      OH2            15.9145779862      -19.3539654510       27.8576079815  TIP3      409             0.0000000000
     19942       569  TIP3      H1             16.0699111123      -19.8870075360       27.0673167581  TIP3      409             0.0000000000
     19943       569  TIP3      H2             16.7815384096      -18.9262899978       27.9824382028  TIP3      409             0.0000000000
     19944       570  TIP3      OH2            17.1317912245      -21.7337575336       26.0763222310  TIP3      410             0.0000000000
     19945       570  TIP3      H1             17.1007175221      -22.3445355123       25.3121627467  TIP3      410             0.0000000000
     19946       570  TIP3      H2             16.8172246210      -22.2995335813       26.8079494826  TIP3      410             0.0000000000
     19947       571  TIP3      OH2            18.4868733929      -22.6931611464       34.5083437108  TIP3      411             0.0000000000
     19948       571  TIP3      H1             18.1413125916      -22.9919845500       33.6345571712  TIP3      411             0.0000000000
     19949       571  TIP3      H2             18.7974500153      -21.8077053959       34.2727456579  TIP3      411             0.0000000000
     19950       572  TIP3      OH2            13.0354764815      -25.7478261201       24.6183646657  TIP3      412             0.0000000000
     19951       572  TIP3      H1             12.6803518179      -24.9322954318       24.2160386825  TIP3      412             0.0000000000
     19952       572  TIP3      H2             13.9468776493      -25.7305543414       24.2338028385  TIP3      412             0.0000000000
     19953       573  TIP3      OH2            20.1986132704      -26.3669128740       32.0598958458  TIP3      413             0.0000000000
     19954       573  TIP3      H1             19.7659511468      -26.1054191438       31.2161320258  TIP3      413             0.0000000000
     19955       573  TIP3      H2             21.0203231361      -25.8507439099       31.9210856329  TIP3      413             0.0000000000
     19956       574  TIP3      OH2            16.3484127848      -26.3978172899       25.8208599793  TIP3      414             0.0000000000
     19957       574  TIP3      H1             16.2106073379      -25.8087743719       26.5731605101  TIP3      414             0.0000000000
     19958       574  TIP3      H2             17.3141925406      -26.3689578033       25.7006672347  TIP3      414             0.0000000000
     19959       575  TIP3      OH2            16.6336149112      -27.1319795333       34.5842500058  TIP3      415             0.0000000000
     19960       575  TIP3      H1             16.4990412848      -26.1928028455       34.7740331918  TIP3      415             0.0000000000
     19961       575  TIP3      H2             15.8497253117      -27.3530635112       34.0464129427  TIP3      415             0.0000000000
     19962       576  TIP3      OH2             8.2670512328      -25.1913140906       26.8587244624  TIP3      416             0.0000000000
     19963       576  TIP3      H1              7.8536137496      -25.7132458797       26.1426488684  TIP3      416             0.0000000000
     19964       576  TIP3      H2              8.8077283592      -25.8434393573       27.3473189016  TIP3      416             0.0000000000
     19965       577  TIP3      OH2             9.5534997986      -21.5048055324       29.6085831014  TIP3      417             0.0000000000
     19966       577  TIP3      H1              9.2584688172      -21.4935093882       28.6619705623  TIP3      417             0.0000000000
     19967       577  TIP3      H2             10.3662242054      -22.0152249078       29.5828223734  TIP3      417             0.0000000000
     19968       578  TIP3      OH2             8.7629690695      -26.7645540436       30.5806684707  TIP3      418             0.0000000000
     19969       578  TIP3      H1              8.7821577313      -26.4731989904       29.6617136004  TIP3      418             0.0000000000
     19970       578  TIP3      H2              8.9460331216      -25.9069786623       31.0477077073  TIP3      418             0.0000000000
     19971       579  TIP3      OH2            14.9110882443      -20.7926525812       31.4160796774  TIP3      419             0.0000000000
     19972       579  TIP3      H1             14.5297405801      -20.0465262507       31.9077854454  TIP3      419             0.0000000000
     19973       579  TIP3      H2             14.8853916564      -21.4927761740       32.0815009555  TIP3      419             0.0000000000
     19974       580  TIP3      OH2             9.5824988675      -22.0015249509       35.5153329378  TIP3      420             0.0000000000
     19975       580  TIP3      H1              8.9253166199      -21.3759875678       35.9016582611  TIP3      420             0.0000000000
     19976       580  TIP3      H2              9.1839144445      -22.1839541149       34.6298802362  TIP3      420             0.0000000000
     19977       581  TIP3      OH2            15.2652826283      -25.8118818845       23.1736534280  TIP3      421             0.0000000000
     19978       581  TIP3      H1             16.1319207990      -26.0643375747       23.5586317269  TIP3      421             0.0000000000
     19979       581  TIP3      H2             15.5461239361      -25.3791750144       22.3391094779  TIP3      421             0.0000000000
     19980       582  TIP3      OH2             6.0943938207      -25.5156927135       34.1524379322  TIP3      422             0.0000000000
     19981       582  TIP3      H1              6.2278664252      -24.5673642978       34.2468517161  TIP3      422             0.0000000000
     19982       582  TIP3      H2              5.2061467643      -25.6708462877       34.5305210466  TIP3      422             0.0000000000
     19983       583  TIP3      OH2            13.2222448885      -19.9188304455       26.6293001104  TIP3      423             0.0000000000
     19984       583  TIP3      H1             13.5237759579      -19.1470821751       27.1362544545  TIP3      423             0.0000000000
     19985       583  TIP3      H2             13.2041927338      -19.5642429932       25.7346350454  TIP3      423             0.0000000000
     19986       584  TIP3      OH2             7.9819015998      -20.2568324848       36.8348556505  TIP3      424             0.0000000000
     19987       584  TIP3      H1              7.7065261782      -19.4384630645       36.3901581425  TIP3      424             0.0000000000
     19988       584  TIP3      H2              7.2851954611      -20.3951340366       37.4953194520  TIP3      424             0.0000000000
     19989       585  TIP3      OH2            19.2097984977      -34.3901029541       22.7005716140  TIP3      425             0.0000000000
     19990       585  TIP3      H1             19.3434467727      -35.2799398411       22.3301158622  TIP3      425             0.0000000000
     19991       585  TIP3      H2             19.5018861619      -33.8020363831       21.9799382607  TIP3      425             0.0000000000
     19992       586  TIP3      OH2             6.7924074503      -26.2552373322       24.7176947953  TIP3      426             0.0000000000
     19993       586  TIP3      H1              6.8567843817      -25.4371982691       24.1663763609  TIP3      426             0.0000000000
     19994       586  TIP3      H2              5.8471074328      -26.4387125141       24.6160371924  TIP3      426             0.0000000000
     19995       587  TIP3      OH2             3.1130640709      -23.7843262377       33.6608689032  TIP3      427             0.0000000000
     19996       587  TIP3      H1              2.7775462665      -23.8502626332       32.7451245225  TIP3      427             0.0000000000
     19997       587  TIP3      H2              3.2183469717      -24.7438057460       33.8384300414  TIP3      427             0.0000000000
     19998       588  TIP3      OH2             3.2547932271      -21.0091318749       30.3090551480  TIP3      428             0.0000000000
     19999       588  TIP3      H1              3.8177397592      -21.6431834096       29.8110761578  TIP3      428             0.0000000000
     20000       588  TIP3      H2              3.6741785198      -20.2203036398       29.9178353096  TIP3      428             0.0000000000
     20001       589  TIP3      OH2            20.7178104730      -19.8285342145       35.4633696401  TIP3      429             0.0000000000
     20002       589  TIP3      H1             20.7565127565      -20.4447740935       36.2308758688  TIP3      429             0.0000000000
     20003       589  TIP3      H2             20.1942124825      -19.1332784006       35.9262411418  TIP3      429             0.0000000000
     20004       590  TIP3      OH2            11.9010252414      -20.8449814056       35.1033837467  TIP3      430             0.0000000000
     20005       590  TIP3      H1             12.0800803367      -20.0247634455       35.6218787977  TIP3      430             0.0000000000
     20006       590  TIP3      H2             10.9611372578      -21.0506948606       35.3078728260  TIP3      430             0.0000000000
     20007       591  TIP3      OH2            12.5085105138      -16.9264376389       24.5442457428  TIP3      431             0.0000000000
     20008       591  TIP3      H1             12.8482450732      -16.8685105155       23.6171392710  TIP3      431             0.0000000000
     20009       591  TIP3      H2             12.7117492707      -16.0313145135       24.8738568023  TIP3      431             0.0000000000
     20010       592  TIP3      OH2             6.0430789652      -17.9886301525       26.4692450527  TIP3      432             0.0000000000
     20011       592  TIP3      H1              5.6866646952      -18.2401977926       27.3354599678  TIP3      432             0.0000000000
     20012       592  TIP3      H2              5.3856812845      -18.3831125235       25.8707220250  TIP3      432             0.0000000000
     20013       593  TIP3      OH2            15.8045082464      -18.0419405766       22.0466492337  TIP3      433             0.0000000000
     20014       593  TIP3      H1             16.4351459350      -18.7724833599       21.9574509572  TIP3      433             0.0000000000
     20015       593  TIP3      H2             15.7140240768      -18.0097228422       23.0176561960  TIP3      433             0.0000000000
     20016       594  TIP3      OH2            15.6602057805      -17.7128711172       24.8010780505  TIP3      434             0.0000000000
     20017       594  TIP3      H1             14.7455173279      -17.9062717338       25.0372802997  TIP3      434             0.0000000000
     20018       594  TIP3      H2             16.1932550703      -18.3197815966       25.3537647261  TIP3      434             0.0000000000
     20019       595  TIP3      OH2            18.4242905983      -28.5496752615       35.8424283343  TIP3      435             0.0000000000
     20020       595  TIP3      H1             17.7183258732      -27.9024025049       35.6270937667  TIP3      435             0.0000000000
     20021       595  TIP3      H2             17.9669216604      -29.1315286766       36.4987645317  TIP3      435             0.0000000000
     20022       596  TIP3      OH2             5.5285813833      -22.8601763421       34.3663760031  TIP3      436             0.0000000000
     20023       596  TIP3      H1              5.5844795579      -23.3680261218       35.2168644732  TIP3      436             0.0000000000
     20024       596  TIP3      H2              4.7251167933      -23.2583743994       33.9393845955  TIP3      436             0.0000000000
     20025       597  TIP3      OH2             8.9995536064      -33.3407593641       30.6609600444  TIP3      437             0.0000000000
     20026       597  TIP3      H1              8.7233554456      -33.5855224886       29.7519046012  TIP3      437             0.0000000000
     20027       597  TIP3      H2              8.1281374136      -33.1512134648       31.0529894757  TIP3      437             0.0000000000
     20028       598  TIP3      OH2            12.8855418159      -33.8787333825       33.4376409712  TIP3      438             0.0000000000
     20029       598  TIP3      H1             13.1388263779      -34.2696789499       34.2716764741  TIP3      438             0.0000000000
     20030       598  TIP3      H2             11.9725392244      -34.2098662611       33.3312868000  TIP3      438             0.0000000000
     20031       599  TIP3      OH2            15.9753718994      -30.0003000501       34.5250648383  TIP3      439             0.0000000000
     20032       599  TIP3      H1             15.5907986831      -30.4205124236       35.3230710187  TIP3      439             0.0000000000
     20033       599  TIP3      H2             16.3290759116      -29.2008448697       34.9329848972  TIP3      439             0.0000000000
     20034       600  TIP3      OH2             8.5107518318      -28.8502316162       32.0788463753  TIP3      440             0.0000000000
     20035       600  TIP3      H1              7.5998680682      -28.5144638335       32.1311377799  TIP3      440             0.0000000000
     20036       600  TIP3      H2              8.8873178512      -28.1346588718       31.4942560879  TIP3      440             0.0000000000
     20037       601  TIP3      OH2             8.1342990713      -28.9021130986       26.3659658272  TIP3      441             0.0000000000
     20038       601  TIP3      H1              7.1489209112      -28.8203185171       26.3635906689  TIP3      441             0.0000000000
     20039       601  TIP3      H2              8.2551634852      -29.5650050377       25.6485426999  TIP3      441             0.0000000000
     20040       602  TIP3      OH2            13.8257208612      -28.4856850974       24.7338101990  TIP3      442             0.0000000000
     20041       602  TIP3      H1             13.9728016130      -27.5670293214       24.4471221140  TIP3      442             0.0000000000
     20042       602  TIP3      H2             14.5830004668      -28.9217411193       24.2907886366  TIP3      442             0.0000000000
     20043       603  TIP3      OH2            12.5514127102      -27.6148852251       36.6434168545  TIP3      443             0.0000000000
     20044       603  TIP3      H1             12.1472717631      -28.4683149011       36.9249484475  TIP3      443             0.0000000000
     20045       603  TIP3      H2             13.3983098151      -27.7091827372       37.1461775715  TIP3      443             0.0000000000
     20046       604  TIP3      OH2            14.5975136088      -28.6467661681       28.0482344243  TIP3      444             0.0000000000
     20047       604  TIP3      H1             15.1853938079      -27.9319439161       27.7418338804  TIP3      444             0.0000000000
     20048       604  TIP3      H2             14.8753914496      -29.3837711913       27.4618990448  TIP3      444             0.0000000000
     20049       605  TIP3      OH2             5.6959528858      -28.6468763318       33.1214645365  TIP3      445             0.0000000000
     20050       605  TIP3      H1              5.8729175167      -27.8676048162       33.6821244575  TIP3      445             0.0000000000
     20051       605  TIP3      H2              4.8641853652      -29.0119670296       33.4731678604  TIP3      445             0.0000000000
     20052       606  TIP3      OH2             2.8119373974      -31.5169397097       27.7539804384  TIP3      446             0.0000000000
     20053       606  TIP3      H1              3.4658812245      -31.0976376363       28.3374375350  TIP3      446             0.0000000000
     20054       606  TIP3      H2              3.3056126852      -31.6384456960       26.9248603834  TIP3      446             0.0000000000
     20055       607  TIP3      OH2             4.4513321264      -30.2458467474       22.4340582992  TIP3      447             0.0000000000
     20056       607  TIP3      H1              4.7488621003      -29.3765904914       22.7319287250  TIP3      447             0.0000000000
     20057       607  TIP3      H2              4.0328788300      -30.6232015231       23.2258834583  TIP3      447             0.0000000000
     20058       608  TIP3      OH2            14.3178039455      -27.5611201733       32.7679145418  TIP3      448             0.0000000000
     20059       608  TIP3      H1             14.8521190470      -28.2167027583       32.2557471923  TIP3      448             0.0000000000
     20060       608  TIP3      H2             13.6093600352      -28.1184011804       33.1832694894  TIP3      448             0.0000000000
     20061       609  TIP3      OH2            11.4237945116      -31.2229221394       27.5760936331  TIP3      449             0.0000000000
     20062       609  TIP3      H1             10.5307081585      -31.4774929493       27.8542518375  TIP3      449             0.0000000000
     20063       609  TIP3      H2             11.9485004220      -31.5564252405       28.3436939563  TIP3      449             0.0000000000
     20064       610  TIP3      OH2             5.6537266757      -29.7598134149       26.6467406656  TIP3      450             0.0000000000
     20065       610  TIP3      H1              4.9375001123      -29.6956089513       25.9869959766  TIP3      450             0.0000000000
     20066       610  TIP3      H2              6.0939071412      -30.6059890714       26.3904888588  TIP3      450             0.0000000000
     20067       611  TIP3      OH2             8.7610312735      -29.9507612663       23.9496536042  TIP3      451             0.0000000000
     20068       611  TIP3      H1              9.6806781027      -29.9105824829       24.2713949088  TIP3      451             0.0000000000
     20069       611  TIP3      H2              8.4794578925      -29.0263488173       23.8998055858  TIP3      451             0.0000000000
     20070       612  TIP3      OH2            15.4696157479      -31.7559646407       30.9300770186  TIP3      452             0.0000000000
     20071       612  TIP3      H1             14.7391026338      -31.7616303306       31.5844481038  TIP3      452             0.0000000000
     20072       612  TIP3      H2             15.1462968712      -32.3878270582       30.2735146855  TIP3      452             0.0000000000
     20073       613  TIP3      OH2            18.1957960609      -16.0317722414       37.2055977667  TIP3      453             0.0000000000
     20074       613  TIP3      H1             18.5986197996      -15.8186016615       36.3395954755  TIP3      453             0.0000000000
     20075       613  TIP3      H2             18.6120310930      -15.3448297478       37.7408916406  TIP3      453             0.0000000000
     20076       614  TIP3      OH2             5.9708579674      -23.8967708458       36.8829668388  TIP3      454             0.0000000000
     20077       614  TIP3      H1              6.4842433050      -23.7744135169       37.7110827242  TIP3      454             0.0000000000
     20078       614  TIP3      H2              5.1031594710      -24.1971522814       37.2666806709  TIP3      454             0.0000000000
     20079       615  TIP3      OH2            11.9719577325      -28.4557612930       28.7575080738  TIP3      455             0.0000000000
     20080       615  TIP3      H1             12.9268526426      -28.6870407369       28.6119683319  TIP3      455             0.0000000000
     20081       615  TIP3      H2             11.7462944853      -29.1426508724       29.4095099202  TIP3      455             0.0000000000
     20082       616  TIP3      OH2             6.9803291409      -32.0910225119       25.9663779993  TIP3      456             0.0000000000
     20083       616  TIP3      H1              7.0738406126      -32.9839553298       26.3625450496  TIP3      456             0.0000000000
     20084       616  TIP3      H2              7.2041081875      -32.2756757682       25.0443883068  TIP3      456             0.0000000000
     20085       617  TIP3      OH2            10.7408341285      -30.2764832643       31.5801917736  TIP3      457             0.0000000000
     20086       617  TIP3      H1              9.8686607613      -29.8404033986       31.5797471687  TIP3      457             0.0000000000
     20087       617  TIP3      H2             11.2946023637      -29.5780695750       31.9562830755  TIP3      457             0.0000000000
     20088       618  TIP3      OH2            10.7603591646      -24.3135474402       23.5306063237  TIP3      458             0.0000000000
     20089       618  TIP3      H1             10.0075724493      -23.8363311483       23.1736303144  TIP3      458             0.0000000000
     20090       618  TIP3      H2             10.8775956209      -23.8729683583       24.4026620161  TIP3      458             0.0000000000
     20091       619  TIP3      OH2            18.0866704400      -23.8495305308       32.1625858534  TIP3      459             0.0000000000
     20092       619  TIP3      H1             18.6180942122      -23.4234251311       31.4457642344  TIP3      459             0.0000000000
     20093       619  TIP3      H2             17.5787932793      -24.5223804201       31.6783820855  TIP3      459             0.0000000000
     20094       620  TIP3      OH2            12.7015397541      -23.4304830741       34.9254675165  TIP3      460             0.0000000000
     20095       620  TIP3      H1             12.0327979354      -24.1136675197       35.0186811798  TIP3      460             0.0000000000
     20096       620  TIP3      H2             12.1778149601      -22.6209889577       34.7428620897  TIP3      460             0.0000000000
     20097       621  TIP3      OH2            16.1472016157      -29.1263868144       23.1573895402  TIP3      461             0.0000000000
     20098       621  TIP3      H1             16.8574500570      -29.3343406309       23.8008625563  TIP3      461             0.0000000000
     20099       621  TIP3      H2             16.5060307814      -28.2571654469       22.8764794860  TIP3      461             0.0000000000
     20100       622  TIP3      OH2             6.6834742566      -24.4542133629       29.3780491227  TIP3      462             0.0000000000
     20101       622  TIP3      H1              6.7471087343      -24.5251729382       28.4090284829  TIP3      462             0.0000000000
     20102       622  TIP3      H2              6.4111706654      -25.3268737262       29.6790720135  TIP3      462             0.0000000000
     20103       623  TIP3      OH2            13.6076546920      -22.6681399164       23.2738756840  TIP3      463             0.0000000000
     20104       623  TIP3      H1             13.1859404104      -21.8026925699       23.1486588403  TIP3      463             0.0000000000
     20105       623  TIP3      H2             13.6421325874      -23.0335932591       22.3721683165  TIP3      463             0.0000000000
     20106       624  TIP3      OH2             3.4780201612      -26.2940870868       34.6012374764  TIP3      464             0.0000000000
     20107       624  TIP3      H1              3.1183655254      -26.7293407711       35.4057495855  TIP3      464             0.0000000000
     20108       624  TIP3      H2              2.7915559847      -26.6373994053       33.9931736713  TIP3      464             0.0000000000
     20109       625  TIP3      OH2            10.1816211653      -26.4500353187       36.4010460863  TIP3      465             0.0000000000
     20110       625  TIP3      H1             10.0607323427      -26.9104205645       35.5494469153  TIP3      465             0.0000000000
     20111       625  TIP3      H2             11.0617316450      -26.8308744530       36.6224066920  TIP3      465             0.0000000000
     20112       626  TIP3      OH2            15.4987798099      -21.1211921554       34.8031793795  TIP3      466             0.0000000000
     20113       626  TIP3      H1             14.8560614319      -20.5120515846       34.4147077571  TIP3      466             0.0000000000
     20114       626  TIP3      H2             15.3891885656      -20.8772202290       35.7476794845  TIP3      466             0.0000000000
     20115       627  TIP3      OH2            20.8392755761      -28.6885629423       23.2252949511  TIP3      467             0.0000000000
     20116       627  TIP3      H1             20.6571447752      -28.8925310734       22.2802238478  TIP3      467             0.0000000000
     20117       627  TIP3      H2             20.4012568059      -27.8057259320       23.2667043703  TIP3      467             0.0000000000
     20118       628  TIP3      OH2            21.0514712563      -23.3042331946       35.9764401332  TIP3      468             0.0000000000
     20119       628  TIP3      H1             20.8769883687      -22.7360095758       36.7586018289  TIP3      468             0.0000000000
     20120       628  TIP3      H2             21.7516762974      -22.7901537837       35.5514705316  TIP3      468             0.0000000000
     20121       629  TIP3      OH2            19.3342898587      -20.7412128009       23.2325451036  TIP3      469             0.0000000000
     20122       629  TIP3      H1             18.4373514910      -21.1265683386       23.2204995218  TIP3      469             0.0000000000
     20123       629  TIP3      H2             19.1799680721      -19.8153029139       23.0078213970  TIP3      469             0.0000000000
     20124       630  TIP3      OH2            16.4631465597      -25.5096066283       30.7695201868  TIP3      470             0.0000000000
     20125       630  TIP3      H1             16.0756171578      -26.3064290522       31.1659424970  TIP3      470             0.0000000000
     20126       630  TIP3      H2             16.9728674368      -25.9206542312       30.0382165722  TIP3      470             0.0000000000
     20127       631  TIP3      OH2             8.7731282962      -20.9186954129       27.0598028515  TIP3      471             0.0000000000
     20128       631  TIP3      H1              9.0025162098      -20.1436868978       26.5189635292  TIP3      471             0.0000000000
     20129       631  TIP3      H2              7.8500201737      -21.1009757829       26.7839502037  TIP3      471             0.0000000000
     20130       632  TIP3      OH2             4.8374064009      -25.8841944829       22.0929843747  TIP3      472             0.0000000000
     20131       632  TIP3      H1              5.4562063093      -25.1521011704       22.2939739971  TIP3      472             0.0000000000
     20132       632  TIP3      H2              5.0298520322      -26.0602159386       21.1597118776  TIP3      472             0.0000000000
     20133       633  TIP3      OH2            10.3054760752      -23.1651501353       26.1501661979  TIP3      473             0.0000000000
     20134       633  TIP3      H1              9.8207733153      -22.3348925801       26.3460152027  TIP3      473             0.0000000000
     20135       633  TIP3      H2              9.7101032825      -23.8131230616       26.5690353220  TIP3      473             0.0000000000
     20136       634  TIP3      OH2            10.5769312297      -19.4320194336       33.1802327354  TIP3      474             0.0000000000
     20137       634  TIP3      H1             11.0901867709      -18.6631103265       32.8712345522  TIP3      474             0.0000000000
     20138       634  TIP3      H2             11.2485819569      -19.9022059608       33.7223285658  TIP3      474             0.0000000000
     20139       635  TIP3      OH2             8.6765793178      -18.0660707617       25.9795979230  TIP3      475             0.0000000000
     20140       635  TIP3      H1              7.7074306006      -18.2056137604       25.9606017712  TIP3      475             0.0000000000
     20141       635  TIP3      H2              8.6902227048      -17.2587579078       26.5120051835  TIP3      475             0.0000000000
     20142       636  TIP3      OH2            14.0367850976      -23.3986258643       32.4751526724  TIP3      476             0.0000000000
     20143       636  TIP3      H1             13.5347989711      -23.3586446867       33.3243062507  TIP3      476             0.0000000000
     20144       636  TIP3      H2             14.8035169548      -23.9112646364       32.7832180627  TIP3      476             0.0000000000
     20145       637  TIP3      OH2            16.8473893819      -21.5094886812       22.7030620166  TIP3      477             0.0000000000
     20146       637  TIP3      H1             16.7504530461      -22.3429082463       23.2094485822  TIP3      477             0.0000000000
     20147       637  TIP3      H2             16.4062126936      -21.7049124642       21.8689679994  TIP3      477             0.0000000000
     20148       638  TIP3      OH2            17.2279486393      -18.5873631496       34.9080507269  TIP3      478             0.0000000000
     20149       638  TIP3      H1             16.5533517609      -19.1989979658       34.5752503136  TIP3      478             0.0000000000
     20150       638  TIP3      H2             17.2620995554      -17.8814490584       34.2171294228  TIP3      478             0.0000000000
     20151       639  TIP3      OH2            20.8060247499      -17.3321828370       20.5555270783  TIP3      479             0.0000000000
     20152       639  TIP3      H1             21.4380962767      -17.3216714217       21.2972910113  TIP3      479             0.0000000000
     20153       639  TIP3      H2             20.0344510228      -16.9250679892       21.0112487502  TIP3      479             0.0000000000
     20154       640  TIP3      OH2             5.2812601646      -31.4160497232       34.5586913895  TIP3      480             0.0000000000
     20155       640  TIP3      H1              4.7044762089      -30.9315877928       35.1914415256  TIP3      480             0.0000000000
     20156       640  TIP3      H2              5.0650541672      -32.3268458338       34.7904190690  TIP3      480             0.0000000000
     20157       641  TIP3      OH2            17.5226170080      -23.7936853006       24.1562236361  TIP3      481             0.0000000000
     20158       641  TIP3      H1             17.4261307631      -24.7620699306       24.2096244815  TIP3      481             0.0000000000
     20159       641  TIP3      H2             18.4971454935      -23.7913148619       24.0023655048  TIP3      481             0.0000000000
     20160       642  TIP3      OH2             5.0175084224      -19.6653154687       32.8610217882  TIP3      482             0.0000000000
     20161       642  TIP3      H1              5.5885905310      -20.4281760787       32.6823895315  TIP3      482             0.0000000000
     20162       642  TIP3      H2              5.6716267826      -18.9615135028       33.0723624159  TIP3      482             0.0000000000
     20163       643  TIP3      OH2             9.3142739204      -21.1484147800       22.5675425508  TIP3      483             0.0000000000
     20164       643  TIP3      H1             10.2404628347      -21.4055020030       22.6493866983  TIP3      483             0.0000000000
     20165       643  TIP3      H2              9.3668869549      -20.1941397071       22.7766157846  TIP3      483             0.0000000000
     20166       644  TIP3      OH2             6.5168821081      -24.0214572871       23.2736036528  TIP3      484             0.0000000000
     20167       644  TIP3      H1              5.6381646012      -23.6705975619       23.5378245407  TIP3      484             0.0000000000
     20168       644  TIP3      H2              6.8411153892      -23.2822920877       22.7276620989  TIP3      484             0.0000000000
     20169       645  TIP3      OH2            14.0204121688      -31.4699421120       33.2401923771  TIP3      485             0.0000000000
     20170       645  TIP3      H1             14.6607230557      -31.4204928499       33.9680667752  TIP3      485             0.0000000000
     20171       645  TIP3      H2             13.5655531692      -32.3274475962       33.3788351585  TIP3      485             0.0000000000
     20172       646  TIP3      OH2            14.5469114495      -31.4996392802       23.6150362516  TIP3      486             0.0000000000
     20173       646  TIP3      H1             15.1974868639      -30.7666685652       23.6189255002  TIP3      486             0.0000000000
     20174       646  TIP3      H2             15.0290249401      -32.2161333440       24.0562373399  TIP3      486             0.0000000000
     20175       647  TIP3      OH2            12.4953371761      -19.5670461622       22.9219585473  TIP3      487             0.0000000000
     20176       647  TIP3      H1             11.6218726311      -19.2084911842       23.1544184123  TIP3      487             0.0000000000
     20177       647  TIP3      H2             12.4036582662      -19.7464802312       21.9742427004  TIP3      487             0.0000000000
     20178       648  TIP3      OH2            11.4574989566      -29.9891253367       25.1832494570  TIP3      488             0.0000000000
     20179       648  TIP3      H1             12.4075654729      -29.8302923639       25.0163014538  TIP3      488             0.0000000000
     20180       648  TIP3      H2             11.4492918108      -30.5580297674       26.0012030615  TIP3      488             0.0000000000
     20181       649  TIP3      OH2            12.6223475167      -28.8993010177       34.2883977784  TIP3      489             0.0000000000
     20182       649  TIP3      H1             12.8024643164      -28.3725201529       35.1081557872  TIP3      489             0.0000000000
     20183       649  TIP3      H2             13.1666482524      -29.6962911126       34.4208758044  TIP3      489             0.0000000000
     20184       650  TIP3      OH2            12.4686913628      -33.0219214708       25.8423313823  TIP3      490             0.0000000000
     20185       650  TIP3      H1             12.2388199351      -32.4586942109       26.6100741810  TIP3      490             0.0000000000
     20186       650  TIP3      H2             13.2953730004      -32.6413429367       25.5328502593  TIP3      490             0.0000000000
     20187       651  TIP3      OH2             9.9368515517      -18.5388227490       23.6267742621  TIP3      491             0.0000000000
     20188       651  TIP3      H1             10.6956234136      -17.9768368868       23.8574997596  TIP3      491             0.0000000000
     20189       651  TIP3      H2              9.2827246563      -18.2118428512       24.2861559215  TIP3      491             0.0000000000
     20190       652  TIP3      OH2             8.2811346972      -32.1674237869       22.5993109024  TIP3      492             0.0000000000
     20191       652  TIP3      H1              8.2409681827      -31.2385369556       22.9116289929  TIP3      492             0.0000000000
     20192       652  TIP3      H2              9.2113779624      -32.3601009987       22.8433673967  TIP3      492             0.0000000000
     20193       653  TIP3      OH2            18.0024543188      -31.7418377751       35.0227952889  TIP3      493             0.0000000000
     20194       653  TIP3      H1             17.2886147086      -31.0934039654       35.0057951776  TIP3      493             0.0000000000
     20195       653  TIP3      H2             18.3417386319      -31.6283256916       34.1122363901  TIP3      493             0.0000000000
     20196       654  TIP3      OH2            17.1740231014      -27.6888716386       29.1181624144  TIP3      494             0.0000000000
     20197       654  TIP3      H1             16.7344757456      -28.3524959687       29.6860192345  TIP3      494             0.0000000000
     20198       654  TIP3      H2             18.1224910777      -27.8218385108       29.3424014843  TIP3      494             0.0000000000
     20199       655  TIP3      OH2             6.7167828345      -21.6828068604       21.6073534803  TIP3      495             0.0000000000
     20200       655  TIP3      H1              7.5141552010      -21.3212139460       22.0497219637  TIP3      495             0.0000000000
     20201       655  TIP3      H2              7.1779809683      -22.1430415929       20.8773104280  TIP3      495             0.0000000000
     20202       656  TIP3      OH2            17.9384656035      -18.4546588579       30.6126965066  TIP3      496             0.0000000000
     20203       656  TIP3      H1             17.7987270705      -17.6783901435       30.0365441675  TIP3      496             0.0000000000
     20204       656  TIP3      H2             18.9108956278      -18.4862239240       30.6465795026  TIP3      496             0.0000000000
     20205       657  TIP3      OH2             5.1438684146      -33.9894562527       29.8822152884  TIP3      497             0.0000000000
     20206       657  TIP3      H1              5.6969781205      -34.0522282976       29.0674991326  TIP3      497             0.0000000000
     20207       657  TIP3      H2              5.5517061362      -34.7179288511       30.3826008788  TIP3      497             0.0000000000
     20208       658  TIP3      OH2             4.5496091776      -20.7351757878       25.1407407008  TIP3      498             0.0000000000
     20209       658  TIP3      H1              3.8136632054      -20.4063836760       25.6569640179  TIP3      498             0.0000000000
     20210       658  TIP3      H2              4.7501263973      -19.9517999615       24.5852464473  TIP3      498             0.0000000000
     20211       659  TIP3      OH2             3.7761182895      -17.6242213316       36.7162306220  TIP3      499             0.0000000000
     20212       659  TIP3      H1              4.4742829178      -17.5345261900       37.3993666809  TIP3      499             0.0000000000
     20213       659  TIP3      H2              3.4527765956      -18.5203540988       36.9070909381  TIP3      499             0.0000000000
     20214       660  TIP3      OH2             8.6746681542      -19.1159108713       39.3021406529  TIP3      500             0.0000000000
     20215       660  TIP3      H1              9.5774547411      -19.1321928018       39.6582000479  TIP3      500             0.0000000000
     20216       660  TIP3      H2              8.8351135236      -19.1637912313       38.3474629748  TIP3      500             0.0000000000
     20217       661  TIP3      OH2            15.0349848618      -20.2866280552       37.3388811965  TIP3      501             0.0000000000
     20218       661  TIP3      H1             14.9041450807      -21.0456568437       37.9525743955  TIP3      501             0.0000000000
     20219       661  TIP3      H2             15.8807228558      -19.9484795872       37.7016291131  TIP3      501             0.0000000000
     20220       662  TIP3      OH2             3.4413568487      -23.7203142531       37.9579053583  TIP3      502             0.0000000000
     20221       662  TIP3      H1              2.8659348923      -24.2378769654       38.5539999494  TIP3      502             0.0000000000
     20222       662  TIP3      H2              2.8292379374      -23.4761679028       37.2353106407  TIP3      502             0.0000000000
     20223       663  TIP3      OH2             8.6864313186      -22.9762919494       19.8355779333  TIP3      503             0.0000000000
     20224       663  TIP3      H1              8.5669422406      -23.9377888753       19.6647300414  TIP3      503             0.0000000000
     20225       663  TIP3      H2              8.2221756517      -22.6484412596       19.0556780513  TIP3      503             0.0000000000
     20226       664  TIP3      OH2            10.2447393314      -23.9302091764       37.2265784163  TIP3      504             0.0000000000
     20227       664  TIP3      H1              9.9757445700      -23.3176396314       36.4936561105  TIP3      504             0.0000000000
     20228       664  TIP3      H2             10.1107398995      -24.8307859654       36.8351767767  TIP3      504             0.0000000000
     20229       665  TIP3      OH2            16.1354958750      -23.9105032847       34.8857827889  TIP3      505             0.0000000000
     20230       665  TIP3      H1             16.9740511771      -23.3874282210       34.9527295570  TIP3      505             0.0000000000
     20231       665  TIP3      H2             15.5265722773      -23.1455132388       34.9746611907  TIP3      505             0.0000000000
     20232       666  TIP3      OH2             4.7509568088      -26.3325293585       37.3908318902  TIP3      506             0.0000000000
     20233       666  TIP3      H1              4.1092029273      -27.0556992051       37.5450543619  TIP3      506             0.0000000000
     20234       666  TIP3      H2              4.8965777858      -26.0968984217       38.3281927205  TIP3      506             0.0000000000
     20235       667  TIP3      OH2             8.3520946363      -27.1949580980       34.2797578969  TIP3      507             0.0000000000
     20236       667  TIP3      H1              8.9180190070      -26.4315737541       34.0477467146  TIP3      507             0.0000000000
     20237       667  TIP3      H2              8.6224365873      -27.7709831904       33.5495234033  TIP3      507             0.0000000000
     20238       668  TIP3      OH2            14.0404414472      -24.8351274570       38.2799254796  TIP3      508             0.0000000000
     20239       668  TIP3      H1             14.5089597786      -25.3176010618       37.5761563949  TIP3      508             0.0000000000
     20240       668  TIP3      H2             13.8320344838      -25.5616620406       38.9015607032  TIP3      508             0.0000000000
     20241       669  TIP3      OH2             9.5285562374      -30.1218153207       35.4896614473  TIP3      509             0.0000000000
     20242       669  TIP3      H1              9.8369086509      -30.9238301271       35.0326897046  TIP3      509             0.0000000000
     20243       669  TIP3      H2             10.3405055643      -29.5816828690       35.5199261666  TIP3      509             0.0000000000
     20244       670  TIP3      OH2             9.7446482791      -31.9840613480       33.2909063593  TIP3      510             0.0000000000
     20245       670  TIP3      H1             10.4032268271      -31.4462854429       32.7896563345  TIP3      510             0.0000000000
     20246       670  TIP3      H2              9.3065471991      -32.4086002926       32.5217933258  TIP3      510             0.0000000000
     20247       671  TIP3      OH2            10.7601507226      -26.0486856883       33.4838847319  TIP3      511             0.0000000000
     20248       671  TIP3      H1             11.6819326337      -26.2636683590       33.2754410987  TIP3      511             0.0000000000
     20249       671  TIP3      H2             10.4509827616      -25.4803245713       32.7435488488  TIP3      511             0.0000000000
     20250       672  TIP3      OH2            14.4709756268      -28.2325296700       38.4549395826  TIP3      512             0.0000000000
     20251       672  TIP3      H1             14.6973560963      -29.1369293003       38.1615114135  TIP3      512             0.0000000000
     20252       672  TIP3      H2             15.3621484067      -27.8532201300       38.3492057064  TIP3      512             0.0000000000
     20253       673  TIP3      OH2            16.8821867158      -25.3161304709       37.0730171753  TIP3      513             0.0000000000
     20254       673  TIP3      H1             16.4933922459      -24.9773676023       36.2457276453  TIP3      513             0.0000000000
     20255       673  TIP3      H2             17.8161205983      -25.4010865668       36.7936090138  TIP3      513             0.0000000000
     20256       674  TIP3      OH2             7.2152063708      -28.7988474408       37.7290106192  TIP3      514             0.0000000000
     20257       674  TIP3      H1              6.3998462868      -29.2131925371       38.0774729188  TIP3      514             0.0000000000
     20258       674  TIP3      H2              7.7251233451      -29.6225770809       37.6149600965  TIP3      514             0.0000000000
     20259       675  TIP3      OH2            10.3413844894      -34.5299002068       33.8419017602  TIP3      515             0.0000000000
     20260       675  TIP3      H1             10.1833658234      -33.5780686463       33.6692818355  TIP3      515             0.0000000000
     20261       675  TIP3      H2              9.4497476744      -34.9184253825       33.6645120132  TIP3      515             0.0000000000
     20262       676  TIP3      OH2            11.1371894214      -29.8839231283       37.5556891683  TIP3      516             0.0000000000
     20263       676  TIP3      H1             11.1766518832      -30.2385828204       38.4751075414  TIP3      516             0.0000000000
     20264       676  TIP3      H2             10.2165771528      -30.1352276137       37.3158546102  TIP3      516             0.0000000000
     20265       677  TIP3      OH2            14.0437730022      -30.5771848074       36.4363910020  TIP3      517             0.0000000000
     20266       677  TIP3      H1             13.1328697959      -30.8780876505       36.5706080423  TIP3      517             0.0000000000
     20267       677  TIP3      H2             14.4800915643      -31.1462570105       37.1126441019  TIP3      517             0.0000000000
     20268       678  TIP3      OH2            14.7236025128      -32.3659201522       38.2150951229  TIP3      518             0.0000000000
     20269       678  TIP3      H1             15.4190962238      -33.0373581781       38.1156001157  TIP3      518             0.0000000000
     20270       678  TIP3      H2             15.0595296957      -31.8465825939       38.9875101283  TIP3      518             0.0000000000
     20271       679  TIP3      OH2             5.7011541670      -31.2148192974       37.6487214820  TIP3      519             0.0000000000
     20272       679  TIP3      H1              5.1373871278      -31.8461393535       37.1695181015  TIP3      519             0.0000000000
     20273       679  TIP3      H2              5.3658126863      -31.2893521459       38.5604657987  TIP3      519             0.0000000000
     20274       680  TIP3      OH2            11.0186999500      -33.9670908567       36.5364569911  TIP3      520             0.0000000000
     20275       680  TIP3      H1             11.9390205750      -34.2800015433       36.5101099931  TIP3      520             0.0000000000
     20276       680  TIP3      H2             10.7525165805      -34.0547639209       35.5997954808  TIP3      520             0.0000000000
     20277       681  TIP3      OH2             9.9590524728      -33.8545161978       39.0354605287  TIP3      521             0.0000000000
     20278       681  TIP3      H1             10.3187940541      -33.9964709414       38.1312624661  TIP3      521             0.0000000000
     20279       681  TIP3      H2             10.0749744175      -32.8920721347       39.1058892256  TIP3      521             0.0000000000
     20280       682  TIP3      OH2             2.9835149892      -16.4981129874       26.0093094974  TIP3      522             0.0000000000
     20281       682  TIP3      H1              2.0801684977      -16.8054319126       25.7878871720  TIP3      522             0.0000000000
     20282       682  TIP3      H2              3.2205984327      -17.1833837978       26.6696915446  TIP3      522             0.0000000000
     20283       683  TIP3      OH2             3.3922730934      -18.5142565816       27.7930100966  TIP3      523             0.0000000000
     20284       683  TIP3      H1              3.6267932955      -19.4491455471       27.6388146631  TIP3      523             0.0000000000
     20285       683  TIP3      H2              2.9996094317      -18.5681056912       28.6825053996  TIP3      523             0.0000000000
     20286       684  TIP3      OH2            20.9028506760      -17.9376165905       30.8797789114  TIP3      524             0.0000000000
     20287       684  TIP3      H1             21.3253957792      -17.8507129578       31.7560400087  TIP3      524             0.0000000000
     20288       684  TIP3      H2             20.9774294375      -17.0285018415       30.5517963454  TIP3      524             0.0000000000
     20289       685  TIP3      OH2            20.3845228693      -17.9546392356       33.5610840367  TIP3      525             0.0000000000
     20290       685  TIP3      H1             19.9519104073      -18.6198852485       32.9803704752  TIP3      525             0.0000000000
     20291       685  TIP3      H2             20.6178016836      -18.5658891889       34.2922815196  TIP3      525             0.0000000000
     20292       686  TIP3      OH2            18.6255578421      -22.6906100856       38.4739319019  TIP3      526             0.0000000000
     20293       686  TIP3      H1             17.9976846887      -22.3805777725       39.1592202493  TIP3      526             0.0000000000
     20294       686  TIP3      H2             19.0647254979      -21.8551579862       38.2162893456  TIP3      526             0.0000000000
     20295       687  TIP3      OH2            20.2400702365      -24.0241399693       23.8446622587  TIP3      527             0.0000000000
     20296       687  TIP3      H1             21.0305283768      -23.4589302659       23.9915664982  TIP3      527             0.0000000000
     20297       687  TIP3      H2             20.5102224649      -24.8005721264       24.3786751482  TIP3      527             0.0000000000
     20298       688  TIP3      OH2            21.0403724848      -25.8201282327       25.7639097805  TIP3      528             0.0000000000
     20299       688  TIP3      H1             20.2123964816      -26.3380980099       25.7877475536  TIP3      528             0.0000000000
     20300       688  TIP3      H2             21.0928958242      -25.5410715269       26.6967628039  TIP3      528             0.0000000000
     20301       689  TIP3      OH2            20.2833876215      -23.3732877673       30.7134660740  TIP3      529             0.0000000000
     20302       689  TIP3      H1             20.8438817754      -24.0330524207       30.2789001168  TIP3      529             0.0000000000
     20303       689  TIP3      H2             20.7660666147      -22.5338350778       30.5671293170  TIP3      529             0.0000000000
     20304       690  TIP3      OH2            18.9238544454      -20.2628749076       33.0164938644  TIP3      530             0.0000000000
     20305       690  TIP3      H1             18.4064320863      -19.7889715713       33.6895913199  TIP3      530             0.0000000000
     20306       690  TIP3      H2             18.2508547149      -20.5610587385       32.3796165695  TIP3      530             0.0000000000
     20307       691  TIP3      OH2            21.1130230319      -25.9835666719       22.1159930418  TIP3      531             0.0000000000
     20308       691  TIP3      H1             20.1400966326      -25.9854958802       22.2458065888  TIP3      531             0.0000000000
     20309       691  TIP3      H2             21.3649152849      -25.0825335526       22.3780773640  TIP3      531             0.0000000000
     20310       692  TIP3      OH2            19.8578268529      -28.7700776771       20.6996597798  TIP3      532             0.0000000000
     20311       692  TIP3      H1             19.4544096489      -27.9475603886       21.0402481754  TIP3      532             0.0000000000
     20312       692  TIP3      H2             19.1007818159      -29.3698928641       20.6478318596  TIP3      532             0.0000000000
     20313       693  TIP3      OH2            18.8716213320      -27.4723087056       26.3145578048  TIP3      533             0.0000000000
     20314       693  TIP3      H1             18.0237311590      -27.9574455576       26.3176803957  TIP3      533             0.0000000000
     20315       693  TIP3      H2             18.9439995854      -27.1740548423       27.2455395946  TIP3      533             0.0000000000
     20316       694  TIP3      OH2             3.3949422074      -25.0225361845       30.7070568785  TIP3      534             0.0000000000
     20317       694  TIP3      H1              3.3437723107      -25.2922295095       29.7650602758  TIP3      534             0.0000000000
     20318       694  TIP3      H2              4.2746685883      -25.3988785107       30.9258888210  TIP3      534             0.0000000000
     20319       695  TIP3      OH2            19.5114793531      -25.5430581342       36.2302882103  TIP3      535             0.0000000000
     20320       695  TIP3      H1             20.0980559676      -26.3108923448       36.4780008680  TIP3      535             0.0000000000
     20321       695  TIP3      H2             20.1149096763      -24.7720650143       36.3534038891  TIP3      535             0.0000000000
     20322       696  TIP3      OH2            20.7750869790      -27.7402311301       36.9193717521  TIP3      536             0.0000000000
     20323       696  TIP3      H1             19.8996170722      -28.1418362516       36.7148003122  TIP3      536             0.0000000000
     20324       696  TIP3      H2             21.3192076915      -28.5519951711       36.8593322251  TIP3      536             0.0000000000
     20325       697  TIP3      OH2            17.5910665128      -29.6594042794       25.3049995058  TIP3      537             0.0000000000
     20326       697  TIP3      H1             18.0525162097      -30.5218190009       25.2917074493  TIP3      537             0.0000000000
     20327       697  TIP3      H2             18.2944069648      -29.0564694826       24.9904684539  TIP3      537             0.0000000000
     20328       698  TIP3      OH2            19.3382260022      -29.3693465370       29.9764729822  TIP3      538             0.0000000000
     20329       698  TIP3      H1             20.1618329141      -29.1084194478       30.4496833514  TIP3      538             0.0000000000
     20330       698  TIP3      H2             18.7346124026      -29.3674361715       30.7420112537  TIP3      538             0.0000000000
     20331       699  TIP3      OH2            18.9421479027      -28.6852599880       32.5564975917  TIP3      539             0.0000000000
     20332       699  TIP3      H1             18.3299610945      -28.6466646548       33.3068570113  TIP3      539             0.0000000000
     20333       699  TIP3      H2             19.2879883585      -27.7662512369       32.5287193241  TIP3      539             0.0000000000
     20334       700  TIP3      OH2             3.4024625168      -30.3660877560       36.3382236184  TIP3      540             0.0000000000
     20335       700  TIP3      H1              3.4798795935      -29.7486548811       37.1043057719  TIP3      540             0.0000000000
     20336       700  TIP3      H2              2.4464178586      -30.5180313990       36.3776772050  TIP3      540             0.0000000000
     20337       701  TIP3      OH2            21.3444708249      -34.2529474799       38.5358657908  TIP3      541             0.0000000000
     20338       701  TIP3      H1             21.9155569339      -34.5370985292       37.8062779726  TIP3      541             0.0000000000
     20339       701  TIP3      H2             21.4262412268      -33.2738970012       38.4698826590  TIP3      541             0.0000000000
     20340       702  TIP3      OH2            18.7758835599      -32.3405864961       24.9017560879  TIP3      542             0.0000000000
     20341       702  TIP3      H1             18.8584109346      -32.8741470413       25.7119578586  TIP3      542             0.0000000000
     20342       702  TIP3      H2             18.7780082626      -33.0193927851       24.2002821274  TIP3      542             0.0000000000
     20343       703  TIP3      OH2             4.4361071226      -31.5378996144       30.5132513731  TIP3      543             0.0000000000
     20344       703  TIP3      H1              4.6738136984      -32.4785501366       30.3255024325  TIP3      543             0.0000000000
     20345       703  TIP3      H2              5.1953385284      -31.0355606950       30.1601446971  TIP3      543             0.0000000000
     20346       704  TIP3      OH2             2.6605765135      -28.9559551993       30.7455566047  TIP3      544             0.0000000000
     20347       704  TIP3      H1              3.1902842903      -29.2466668107       29.9858085978  TIP3      544             0.0000000000
     20348       704  TIP3      H2              3.1475825506      -28.1450212109       30.9597219941  TIP3      544             0.0000000000
     20349       705  TIP3      OH2            20.5185400533      -32.1886202965       36.6842088512  TIP3      545             0.0000000000
     20350       705  TIP3      H1             19.7414552504      -32.1242264076       37.2661333855  TIP3      545             0.0000000000
     20351       705  TIP3      H2             20.1642954147      -32.6978184451       35.9521320086  TIP3      545             0.0000000000
     20352       706  TIP3      OH2            21.2021723325      -32.6754806306       21.4777064214  TIP3      546             0.0000000000
     20353       706  TIP3      H1             20.7135663882      -32.5467063854       20.6465678183  TIP3      546             0.0000000000
     20354       706  TIP3      H2             22.0193978731      -32.2016488666       21.2962806194  TIP3      546             0.0000000000
     20355       707  TIP3      OH2             3.1497259241      -31.9553664000       24.6690898793  TIP3      547             0.0000000000
     20356       707  TIP3      H1              2.1854422382      -31.9517651813       24.7746844156  TIP3      547             0.0000000000
     20357       707  TIP3      H2              3.1797000614      -32.2814928356       23.7550224550  TIP3      547             0.0000000000
     20358       708  TIP3      OH2            17.5694780176      -17.3509421831       26.9583853452  TIP3      548             0.0000000000
     20359       708  TIP3      H1             18.1127925427      -17.6705072795       26.2089862563  TIP3      548             0.0000000000
     20360       708  TIP3      H2             18.1934301332      -16.8606665776       27.5125509601  TIP3      548             0.0000000000
     20361       709  TIP3      OH2             2.9528969439      -34.0525045996       32.4741407245  TIP3      549             0.0000000000
     20362       709  TIP3      H1              2.8405907737      -34.2690326375       33.4237206582  TIP3      549             0.0000000000
     20363       709  TIP3      H2              2.6546421493      -33.1321348741       32.4627750699  TIP3      549             0.0000000000
     20364       710  TIP3      OH2             4.7179590259      -20.4499538790       38.2983742804  TIP3      550             0.0000000000
     20365       710  TIP3      H1              3.8489457557      -20.1564065201       38.6275780764  TIP3      550             0.0000000000
     20366       710  TIP3      H2              5.0731744886      -20.9188832836       39.0871519978  TIP3      550             0.0000000000
     20367       711  TIP3      OH2             7.9588849841      -19.1385060521       33.7205772838  TIP3      551             0.0000000000
     20368       711  TIP3      H1              7.9787659183      -18.1952089536       33.4315995302  TIP3      551             0.0000000000
     20369       711  TIP3      H2              8.9253522616      -19.2962750120       33.8783398629  TIP3      551             0.0000000000
     20370       712  TIP3      OH2            12.2555410640      -18.4122784048       36.3161923029  TIP3      552             0.0000000000
     20371       712  TIP3      H1             12.4342933698      -18.5485101729       37.2679481496  TIP3      552             0.0000000000
     20372       712  TIP3      H2             12.9962382743      -17.8002849164       36.0944601883  TIP3      552             0.0000000000
     20373       713  TIP3      OH2            14.2562622077      -16.6586325106       35.7106947899  TIP3      553             0.0000000000
     20374       713  TIP3      H1             14.9195554377      -17.1157840380       35.1636135540  TIP3      553             0.0000000000
     20375       713  TIP3      H2             14.7793446781      -16.3074993643       36.4611290415  TIP3      553             0.0000000000
     20376       714  TIP3      OH2            19.2846309458      -34.2156219387       34.6767730962  TIP3      554             0.0000000000
     20377       714  TIP3      H1             18.6794455074      -33.4367762225       34.7097126739  TIP3      554             0.0000000000
     20378       714  TIP3      H2             19.7455382097      -34.0828466662       33.8373006485  TIP3      554             0.0000000000
     20379       715  TIP3      OH2             5.1105155172      -16.8491502419       33.0759914417  TIP3      555             0.0000000000
     20380       715  TIP3      H1              4.2616583920      -16.4366184139       32.7925182957  TIP3      555             0.0000000000
     20381       715  TIP3      H2              5.2535395134      -16.3602791446       33.9042506203  TIP3      555             0.0000000000
     20382       716  TIP3      OH2             7.6583171415      -16.9873774775       32.1583851053  TIP3      556             0.0000000000
     20383       716  TIP3      H1              6.7842121379      -16.5914260409       32.3954903147  TIP3      556             0.0000000000
     20384       716  TIP3      H2              7.9497704950      -16.3513173087       31.4768422800  TIP3      556             0.0000000000
     20385       717  TIP3      OH2            12.2197363073      -17.1555456542       31.8290711281  TIP3      557             0.0000000000
     20386       717  TIP3      H1             12.5996196069      -16.6763209615       31.0730646242  TIP3      557             0.0000000000
     20387       717  TIP3      H2             12.5885359983      -16.5785208529       32.5327114774  TIP3      557             0.0000000000
     20388       718  TIP3      OH2            14.5466541110      -18.4370679442       33.0102414115  TIP3      558             0.0000000000
     20389       718  TIP3      H1             13.9343704189      -18.0822118734       32.3432280568  TIP3      558             0.0000000000
     20390       718  TIP3      H2             15.2610987082      -17.8138049477       32.8021898688  TIP3      558             0.0000000000
     20391       719  TIP3      OH2            17.2832905045      -16.9648066395       32.8240929845  TIP3      559             0.0000000000
     20392       719  TIP3      H1             16.6181511503      -16.6636869322       32.1462639369  TIP3      559             0.0000000000
     20393       719  TIP3      H2             17.7470789959      -17.5769999501       32.2263847781  TIP3      559             0.0000000000
     20394       720  TIP3      OH2             4.7716910279      -18.0931850380       30.5231331471  TIP3      560             0.0000000000
     20395       720  TIP3      H1              4.9505519794      -18.4191409817       31.4241640952  TIP3      560             0.0000000000
     20396       720  TIP3      H2              5.6633395297      -18.1696775590       30.1178340236  TIP3      560             0.0000000000
     20397       721  TIP3      OH2             7.0803951889      -18.7250103221       29.1934350059  TIP3      561             0.0000000000
     20398       721  TIP3      H1              6.5419858274      -19.5136465580       28.9314523950  TIP3      561             0.0000000000
     20399       721  TIP3      H2              7.9112896909      -18.9573950457       28.7571939384  TIP3      561             0.0000000000
     20400       722  TIP3      OH2            10.2810028384      -18.3221543439       29.9327450205  TIP3      562             0.0000000000
     20401       722  TIP3      H1             10.5681239871      -18.6321654703       29.0661220668  TIP3      562             0.0000000000
     20402       722  TIP3      H2             11.1390708340      -18.2633475864       30.4005142171  TIP3      562             0.0000000000
     20403       723  TIP3      OH2            13.0555731495      -32.3284567285       29.3539127871  TIP3      563             0.0000000000
     20404       723  TIP3      H1             12.3221792847      -32.7215642274       29.8679119261  TIP3      563             0.0000000000
     20405       723  TIP3      H2             13.2196911050      -33.0738492684       28.7438415167  TIP3      563             0.0000000000
     20406       724  TIP3      OH2            18.2900597541      -34.0266633077       29.4993474893  TIP3      564             0.0000000000
     20407       724  TIP3      H1             18.4395635176      -33.9474304322       28.5333755132  TIP3      564             0.0000000000
     20408       724  TIP3      H2             17.4076961377      -34.4457135199       29.4647832436  TIP3      564             0.0000000000
     20409       725  TIP3      OH2            19.5737313832      -33.7886363298       27.0494209900  TIP3      565             0.0000000000
     20410       725  TIP3      H1             19.9600744943      -34.4485451694       26.4597589355  TIP3      565             0.0000000000
     20411       725  TIP3      H2             20.2206477798      -33.0447722605       27.0254297552  TIP3      565             0.0000000000
     20412       726  TIP3      OH2             4.4873627420      -34.3380611083       26.7976672291  TIP3      566             0.0000000000
     20413       726  TIP3      H1              3.9370195526      -35.1286127850       26.8551345290  TIP3      566             0.0000000000
     20414       726  TIP3      H2              5.4064709261      -34.6297520598       26.9536368955  TIP3      566             0.0000000000
     20415       727  TIP3      OH2            10.0773458001      -34.0889524319       26.2355208984  TIP3      567             0.0000000000
     20416       727  TIP3      H1             11.0272156531      -33.8318667180       26.2895277263  TIP3      567             0.0000000000
     20417       727  TIP3      H2              9.6784090490      -33.7469905852       27.0619761323  TIP3      567             0.0000000000
     20418       728  TIP3      OH2            16.0064204098      -34.5348322552       28.1741870847  TIP3      568             0.0000000000
     20419       728  TIP3      H1             16.1331107870      -34.3063720927       27.2439232574  TIP3      568             0.0000000000
     20420       728  TIP3      H2             15.1087474839      -34.9502685105       28.1483516320  TIP3      568             0.0000000000
     20421       729  TIP3      OH2            16.2845536725      -34.4056721566       24.4074175456  TIP3      569             0.0000000000
     20422       729  TIP3      H1             16.6579420250      -34.4864305576       23.5139575076  TIP3      569             0.0000000000
     20423       729  TIP3      H2             16.5996031443      -35.2490480234       24.7833488777  TIP3      569             0.0000000000
     20424       730  TIP3      OH2             4.4224379093      -18.4180849955       23.8241319876  TIP3      570             0.0000000000
     20425       730  TIP3      H1              3.5073699875      -18.1255119108       23.6592017041  TIP3      570             0.0000000000
     20426       730  TIP3      H2              4.9163314391      -17.6570406968       23.4505920863  TIP3      570             0.0000000000
     20427       731  TIP3      OH2            10.8606220453      -32.2602358163       23.6134006099  TIP3      571             0.0000000000
     20428       731  TIP3      H1             11.1133195282      -32.8611668592       24.3382435282  TIP3      571             0.0000000000
     20429       731  TIP3      H2             11.4299744420      -31.5130858867       23.8327158835  TIP3      571             0.0000000000
     20430       732  TIP3      OH2            13.3133440349      -16.7760390827       21.9337516934  TIP3      572             0.0000000000
     20431       732  TIP3      H1             14.2163404451      -17.1035835535       21.7383868987  TIP3      572             0.0000000000
     20432       732  TIP3      H2             12.8308756806      -17.3507262192       21.3204189410  TIP3      572             0.0000000000
     20433       733  TIP3      OH2            18.6447269440      -18.2965501256       24.6653308408  TIP3      573             0.0000000000
     20434       733  TIP3      H1             19.0787251139      -19.1666198256       24.5783420312  TIP3      573             0.0000000000
     20435       733  TIP3      H2             19.4037184833      -17.7644385665       24.3325026339  TIP3      573             0.0000000000
     20436       734  TIP3      OH2             5.0255978381      -33.7931219853       36.4335699602  TIP3      574             0.0000000000
     20437       734  TIP3      H1              4.7795767911      -34.6053485809       35.9490349703  TIP3      574             0.0000000000
     20438       734  TIP3      H2              5.9979696457      -33.8671992249       36.4215157739  TIP3      574             0.0000000000
     20439       735  TIP3      OH2             7.4693033291      -34.5079446110       38.0773176942  TIP3      575             0.0000000000
     20440       735  TIP3      H1              8.3459174744      -34.2150888259       38.3937815096  TIP3      575             0.0000000000
     20441       735  TIP3      H2              7.7358627749      -35.2798652766       37.5384434171  TIP3      575             0.0000000000
     20442       736  TIP3      OH2            16.2652921680       35.5934184957       38.0194869331  TIP3      576             0.0000000000
     20443       736  TIP3      H1             15.4788608186       35.0616111292       38.2728173741  TIP3      576             0.0000000000
     20444       736  TIP3      H2             16.2332371901       35.5568436856       37.0566851522  TIP3      576             0.0000000000
     20445       737  TIP3      OH2            18.9190430421      -18.6734101982       36.9946297723  TIP3      577             0.0000000000
     20446       737  TIP3      H1             18.1377447826      -19.0555808171       36.5376639376  TIP3      577             0.0000000000
     20447       737  TIP3      H2             18.5976116804      -17.7500234138       37.0995881924  TIP3      577             0.0000000000
     20448       738  TIP3      OH2            32.8198490724      -24.8780227214       27.0986350277  TIP3      578             0.0000000000
     20449       738  TIP3      H1             33.2503173015      -24.1741206280       27.6077814713  TIP3      578             0.0000000000
     20450       738  TIP3      H2             32.0220776461      -24.4224134691       26.7752452837  TIP3      578             0.0000000000
     20451       739  TIP3      OH2            32.1416868597      -26.2071317134       30.1002048163  TIP3      579             0.0000000000
     20452       739  TIP3      H1             32.6059835181      -26.3800540982       30.9408203532  TIP3      579             0.0000000000
     20453       739  TIP3      H2             32.7671637479      -26.5817375824       29.4552052560  TIP3      579             0.0000000000
     20454       740  TIP3      OH2            24.5703492155      -26.2571894969       31.9044842731  TIP3      580             0.0000000000
     20455       740  TIP3      H1             24.4354764210      -27.1445050470       32.2997470075  TIP3      580             0.0000000000
     20456       740  TIP3      H2             25.2163059102      -26.4624973971       31.1964858820  TIP3      580             0.0000000000
     20457       741  TIP3      OH2            25.5906323220      -21.5896402527       30.4666465682  TIP3      581             0.0000000000
     20458       741  TIP3      H1             25.2515756164      -22.4170191809       30.0446981589  TIP3      581             0.0000000000
     20459       741  TIP3      H2             26.5250623753      -21.7590775679       30.2740178127  TIP3      581             0.0000000000
     20460       742  TIP3      OH2            21.9919417091      -28.4759602203       25.6307533150  TIP3      582             0.0000000000
     20461       742  TIP3      H1             21.7552174637      -27.5421781006       25.4785288190  TIP3      582             0.0000000000
     20462       742  TIP3      H2             21.6016483995      -28.8588617857       24.8151729141  TIP3      582             0.0000000000
     20463       743  TIP3      OH2            23.6154394122      -25.7293260860       27.6607003905  TIP3      583             0.0000000000
     20464       743  TIP3      H1             23.8587765390      -26.5489774452       28.1219572996  TIP3      583             0.0000000000
     20465       743  TIP3      H2             23.8892427662      -25.8481642802       26.7474810180  TIP3      583             0.0000000000
     20466       744  TIP3      OH2            32.5688146099      -17.6948418643       28.3561048175  TIP3      584             0.0000000000
     20467       744  TIP3      H1             33.0609468774      -18.3300486277       27.8057505722  TIP3      584             0.0000000000
     20468       744  TIP3      H2             32.2106897110      -18.2418536489       29.0707146533  TIP3      584             0.0000000000
     20469       745  TIP3      OH2            30.7165168222      -23.4207565596       30.5543974285  TIP3      585             0.0000000000
     20470       745  TIP3      H1             31.0744172276      -24.2704173936       30.2313107925  TIP3      585             0.0000000000
     20471       745  TIP3      H2             31.4612657698      -23.1307317400       31.1165103521  TIP3      585             0.0000000000
     20472       746  TIP3      OH2            33.2967448397      -30.0526303976       30.6008756891  TIP3      586             0.0000000000
     20473       746  TIP3      H1             33.6512000687      -29.8577193337       31.4775015093  TIP3      586             0.0000000000
     20474       746  TIP3      H2             33.5039851900      -29.1778080399       30.2496782325  TIP3      586             0.0000000000
     20475       747  TIP3      OH2            27.0055659266      -30.2170113710       28.3627133936  TIP3      587             0.0000000000
     20476       747  TIP3      H1             27.0717918059      -30.1638687067       27.3930301566  TIP3      587             0.0000000000
     20477       747  TIP3      H2             27.0490373382      -31.1974268881       28.5077741715  TIP3      587             0.0000000000
     20478       748  TIP3      OH2            34.9760097798      -29.8939774095       26.2601976081  TIP3      588             0.0000000000
     20479       748  TIP3      H1             34.9808481364      -30.4106337635       27.0800835462  TIP3      588             0.0000000000
     20480       748  TIP3      H2             35.2552651035      -30.5588257042       25.5947809612  TIP3      588             0.0000000000
     20481       749  TIP3      OH2            24.1250783799      -27.9471361239       29.1189820660  TIP3      589             0.0000000000
     20482       749  TIP3      H1             24.5236627586      -28.6203692932       29.7149113985  TIP3      589             0.0000000000
     20483       749  TIP3      H2             24.3563550935      -28.3582629784       28.2487729323  TIP3      589             0.0000000000
     20484       750  TIP3      OH2            28.2650768655      -26.7836759755       28.3583351541  TIP3      590             0.0000000000
     20485       750  TIP3      H1             29.1387847458      -27.1781912345       28.4891600447  TIP3      590             0.0000000000
     20486       750  TIP3      H2             27.9255679935      -27.3565384103       27.6347334221  TIP3      590             0.0000000000
     20487       751  TIP3      OH2            25.8378184566      -32.1804644446       31.8856730095  TIP3      591             0.0000000000
     20488       751  TIP3      H1             25.5507544131      -31.3557864194       31.4643926689  TIP3      591             0.0000000000
     20489       751  TIP3      H2             25.4400806307      -32.1008409432       32.7667186609  TIP3      591             0.0000000000
     20490       752  TIP3      OH2            33.0175009733      -22.6069533751       25.5219733333  TIP3      592             0.0000000000
     20491       752  TIP3      H1             32.6838131947      -22.6851577206       24.5906724576  TIP3      592             0.0000000000
     20492       752  TIP3      H2             32.6737444850      -21.7474334002       25.7831653095  TIP3      592             0.0000000000
     20493       753  TIP3      OH2            28.2777724597      -24.3031035684       31.8910247095  TIP3      593             0.0000000000
     20494       753  TIP3      H1             27.7233092165      -23.5505840486       32.2004577562  TIP3      593             0.0000000000
     20495       753  TIP3      H2             28.9644399696      -23.8241968487       31.3796825856  TIP3      593             0.0000000000
     20496       754  TIP3      OH2            25.4200694098      -29.8861662296       30.3498765167  TIP3      594             0.0000000000
     20497       754  TIP3      H1             26.1507328889      -29.5624267714       30.9343099702  TIP3      594             0.0000000000
     20498       754  TIP3      H2             25.9481538045      -30.1007271886       29.5313996579  TIP3      594             0.0000000000
     20499       755  TIP3      OH2            26.9092431750      -22.2286107193       33.1942703645  TIP3      595             0.0000000000
     20500       755  TIP3      H1             26.8540747784      -21.3887868718       32.7143180783  TIP3      595             0.0000000000
     20501       755  TIP3      H2             26.0361449218      -22.2185381114       33.6330289478  TIP3      595             0.0000000000
     20502       756  TIP3      OH2            22.5988835870      -22.7565939038       23.8979347826  TIP3      596             0.0000000000
     20503       756  TIP3      H1             22.6486848879      -22.1246404758       23.1737360907  TIP3      596             0.0000000000
     20504       756  TIP3      H2             22.8766640147      -22.1660426368       24.6134689056  TIP3      596             0.0000000000
     20505       757  TIP3      OH2            30.5012415056      -35.0695759185       28.9213272320  TIP3      597             0.0000000000
     20506       757  TIP3      H1             30.4171284806      -35.8140161417       29.5485395820  TIP3      597             0.0000000000
     20507       757  TIP3      H2             30.1886257546      -34.3769744251       29.5242288397  TIP3      597             0.0000000000
     20508       758  TIP3      OH2            34.2437063336      -19.9157110078       27.3480094224  TIP3      598             0.0000000000
     20509       758  TIP3      H1             34.7818259056      -20.7102137304       27.5361937237  TIP3      598             0.0000000000
     20510       758  TIP3      H2             34.8684779791      -19.2281123310       27.6581450187  TIP3      598             0.0000000000
     20511       759  TIP3      OH2            31.9363460515      -25.5163211054       24.0066036299  TIP3      599             0.0000000000
     20512       759  TIP3      H1             31.1509555767      -25.1348380455       23.5504148208  TIP3      599             0.0000000000
     20513       759  TIP3      H2             32.6034192362      -25.6076475555       23.2974320272  TIP3      599             0.0000000000
     20514       760  TIP3      OH2            26.8345929651      -25.1098115656       26.7238728133  TIP3      600             0.0000000000
     20515       760  TIP3      H1             26.7062547448      -25.6337589774       25.9020107778  TIP3      600             0.0000000000
     20516       760  TIP3      H2             27.4755315735      -25.6374968359       27.2501863475  TIP3      600             0.0000000000
     20517       761  TIP3      OH2            28.9677472421      -21.5599889159       29.6664062861  TIP3      601             0.0000000000
     20518       761  TIP3      H1             29.0104044692      -21.6524009669       28.7000303205  TIP3      601             0.0000000000
     20519       761  TIP3      H2             29.6370112980      -22.2118056957       29.9654976661  TIP3      601             0.0000000000
     20520       762  TIP3      OH2            27.1351746869      -26.4106403673       30.8255307394  TIP3      602             0.0000000000
     20521       762  TIP3      H1             27.4899314282      -26.4035437625       29.9049671648  TIP3      602             0.0000000000
     20522       762  TIP3      H2             27.7088289947      -25.7046537087       31.2241727631  TIP3      602             0.0000000000
     20523       763  TIP3      OH2            33.8466731542      -20.6337977385       31.1734918531  TIP3      603             0.0000000000
     20524       763  TIP3      H1             33.6270288341      -20.0339080362       31.9014180607  TIP3      603             0.0000000000
     20525       763  TIP3      H2             33.7379620308      -21.5077726981       31.5999181324  TIP3      603             0.0000000000
     20526       764  TIP3      OH2            28.5963594703      -22.0034519746       35.5986151012  TIP3      604             0.0000000000
     20527       764  TIP3      H1             27.8056889073      -21.4966060290       35.9000013120  TIP3      604             0.0000000000
     20528       764  TIP3      H2             28.3705035166      -22.1531822666       34.6608147895  TIP3      604             0.0000000000
     20529       765  TIP3      OH2            34.3257740165      -25.6688441958       22.7111456251  TIP3      605             0.0000000000
     20530       765  TIP3      H1             35.2329268508      -25.8659340079       22.3979743855  TIP3      605             0.0000000000
     20531       765  TIP3      H2             33.8327100414      -25.6654925573       21.8677036141  TIP3      605             0.0000000000
     20532       766  TIP3      OH2            25.4449598350      -25.3975278506       34.3206278280  TIP3      606             0.0000000000
     20533       766  TIP3      H1             25.8834864813      -24.5658082800       34.0588044138  TIP3      606             0.0000000000
     20534       766  TIP3      H2             24.9844723335      -25.6747042836       33.4930417367  TIP3      606             0.0000000000
     20535       767  TIP3      OH2            31.5847077226      -18.8811656639       25.8593325620  TIP3      607             0.0000000000
     20536       767  TIP3      H1             31.8573091283      -19.5621725048       26.4817549392  TIP3      607             0.0000000000
     20537       767  TIP3      H2             30.9922717726      -18.3428831514       26.4098176780  TIP3      607             0.0000000000
     20538       768  TIP3      OH2            26.5974278874      -20.4367324332       36.1680435783  TIP3      608             0.0000000000
     20539       768  TIP3      H1             26.4195511328      -20.0595999605       35.2852054935  TIP3      608             0.0000000000
     20540       768  TIP3      H2             25.7175752438      -20.3893498948       36.6033062317  TIP3      608             0.0000000000
     20541       769  TIP3      OH2            26.0253923240      -25.9720872471       24.2295408659  TIP3      609             0.0000000000
     20542       769  TIP3      H1             25.5556608297      -25.1352428602       24.3556450439  TIP3      609             0.0000000000
     20543       769  TIP3      H2             25.3727768020      -26.5447387216       23.7960646340  TIP3      609             0.0000000000
     20544       770  TIP3      OH2            22.5427549026      -23.4845406465       32.9489712542  TIP3      610             0.0000000000
     20545       770  TIP3      H1             22.5405755391      -23.7491316590       32.0073313997  TIP3      610             0.0000000000
     20546       770  TIP3      H2             22.6391945171      -24.3624702153       33.3514398630  TIP3      610             0.0000000000
     20547       771  TIP3      OH2            21.6939896186      -20.7957375071       30.5632337623  TIP3      611             0.0000000000
     20548       771  TIP3      H1             22.6193794357      -20.8668711757       30.3107534511  TIP3      611             0.0000000000
     20549       771  TIP3      H2             21.5202262533      -19.8385178831       30.5498821874  TIP3      611             0.0000000000
     20550       772  TIP3      OH2            30.9726783780      -20.6719686791       35.5849124173  TIP3      612             0.0000000000
     20551       772  TIP3      H1             30.7122225788      -19.8469633797       36.0426448017  TIP3      612             0.0000000000
     20552       772  TIP3      H2             30.1495408729      -21.2173078366       35.5903801530  TIP3      612             0.0000000000
     20553       773  TIP3      OH2            31.2900820166      -16.4149898525       23.9185259173  TIP3      613             0.0000000000
     20554       773  TIP3      H1             30.8364125775      -15.6992042934       23.4437249535  TIP3      613             0.0000000000
     20555       773  TIP3      H2             31.2084687064      -16.0611507791       24.8171937310  TIP3      613             0.0000000000
     20556       774  TIP3      OH2            25.1370675225      -18.1244028627       26.7506819120  TIP3      614             0.0000000000
     20557       774  TIP3      H1             25.2683414577      -18.6696000793       27.5546304998  TIP3      614             0.0000000000
     20558       774  TIP3      H2             24.3912479201      -18.5661981272       26.3177454787  TIP3      614             0.0000000000
     20559       775  TIP3      OH2            33.4939149550      -18.3137493610       23.9725851668  TIP3      615             0.0000000000
     20560       775  TIP3      H1             32.8293782669      -17.6110893947       23.8411658102  TIP3      615             0.0000000000
     20561       775  TIP3      H2             33.1798023315      -18.6115839371       24.8434235875  TIP3      615             0.0000000000
     20562       776  TIP3      OH2            24.4646794869      -22.1815351995       34.2906853391  TIP3      616             0.0000000000
     20563       776  TIP3      H1             24.6515064531      -22.6257825407       35.1447627097  TIP3      616             0.0000000000
     20564       776  TIP3      H2             23.7871592259      -22.7826216579       33.9020197516  TIP3      616             0.0000000000
     20565       777  TIP3      OH2            26.3980994686      -32.7817894075       29.1120967472  TIP3      617             0.0000000000
     20566       777  TIP3      H1             26.8236180138      -33.6475107912       28.9506353317  TIP3      617             0.0000000000
     20567       777  TIP3      H2             26.5495973650      -32.7256439416       30.0813815750  TIP3      617             0.0000000000
     20568       778  TIP3      OH2            32.4647482849      -34.1897197355       34.4059500087  TIP3      618             0.0000000000
     20569       778  TIP3      H1             32.7379600445      -34.1054916919       35.3274544040  TIP3      618             0.0000000000
     20570       778  TIP3      H2             31.5286705747      -33.9172016812       34.4120038994  TIP3      618             0.0000000000
     20571       779  TIP3      OH2            27.0090114983      -28.7044091884       32.1330576552  TIP3      619             0.0000000000
     20572       779  TIP3      H1             26.4332099047      -28.4272511078       32.8724214089  TIP3      619             0.0000000000
     20573       779  TIP3      H2             27.0502561031      -27.8793530790       31.5819312169  TIP3      619             0.0000000000
     20574       780  TIP3      OH2            27.0453027547      -28.1006269118       26.2525619456  TIP3      620             0.0000000000
     20575       780  TIP3      H1             26.0891516847      -28.2237579753       26.3132521275  TIP3      620             0.0000000000
     20576       780  TIP3      H2             27.2384788705      -28.5710727456       25.4167056233  TIP3      620             0.0000000000
     20577       781  TIP3      OH2            32.4650333072      -27.4641957072       25.6769813360  TIP3      621             0.0000000000
     20578       781  TIP3      H1             32.1207246490      -26.7316231420       25.1073355511  TIP3      621             0.0000000000
     20579       781  TIP3      H2             33.3410238164      -27.1196661815       25.9104443928  TIP3      621             0.0000000000
     20580       782  TIP3      OH2            31.6426935381      -27.5907338933       37.2917538550  TIP3      622             0.0000000000
     20581       782  TIP3      H1             31.4349383619      -28.5508086793       37.3191443991  TIP3      622             0.0000000000
     20582       782  TIP3      H2             32.6216999006      -27.5741090809       37.2188823081  TIP3      622             0.0000000000
     20583       783  TIP3      OH2            33.6150687455      -27.9109431489       28.4824899549  TIP3      623             0.0000000000
     20584       783  TIP3      H1             33.5166791235      -27.5661570058       27.5859655207  TIP3      623             0.0000000000
     20585       783  TIP3      H2             33.6337429917      -28.8711129189       28.3528630222  TIP3      623             0.0000000000
     20586       784  TIP3      OH2            24.1327284888      -28.4585113912       33.3496157324  TIP3      624             0.0000000000
     20587       784  TIP3      H1             24.7002345467      -28.4497866503       34.1328640091  TIP3      624             0.0000000000
     20588       784  TIP3      H2             23.9365741224      -29.4235743715       33.3219033279  TIP3      624             0.0000000000
     20589       785  TIP3      OH2            21.4949427597      -32.1030372012       27.7246179038  TIP3      625             0.0000000000
     20590       785  TIP3      H1             22.3653218934      -32.0080972885       28.1679129201  TIP3      625             0.0000000000
     20591       785  TIP3      H2             21.7041212009      -31.9244369136       26.7727304720  TIP3      625             0.0000000000
     20592       786  TIP3      OH2            22.9458919569      -30.5168152583       23.0070477395  TIP3      626             0.0000000000
     20593       786  TIP3      H1             23.7131557143      -30.0358585709       22.6639048361  TIP3      626             0.0000000000
     20594       786  TIP3      H2             22.2366548633      -29.8567438622       22.8881811721  TIP3      626             0.0000000000
     20595       787  TIP3      OH2            32.6395865724      -27.9567918290       32.3288880552  TIP3      627             0.0000000000
     20596       787  TIP3      H1             33.4800193507      -27.4521062822       32.3967119181  TIP3      627             0.0000000000
     20597       787  TIP3      H2             32.3338374111      -28.0547120740       33.2358833592  TIP3      627             0.0000000000
     20598       788  TIP3      OH2            29.4018052183      -31.0154511510       27.7849620832  TIP3      628             0.0000000000
     20599       788  TIP3      H1             28.6089648897      -30.7458672236       28.2765170086  TIP3      628             0.0000000000
     20600       788  TIP3      H2             30.0605683250      -30.4979771426       28.2891104913  TIP3      628             0.0000000000
     20601       789  TIP3      OH2            24.4852115900      -29.2392235777       26.7221181969  TIP3      629             0.0000000000
     20602       789  TIP3      H1             23.8388472799      -29.1496055194       26.0014524053  TIP3      629             0.0000000000
     20603       789  TIP3      H2             24.8664142864      -30.1225805420       26.5125727552  TIP3      629             0.0000000000
     20604       790  TIP3      OH2            27.4671191950      -29.5400914658       23.8838354948  TIP3      630             0.0000000000
     20605       790  TIP3      H1             28.4350766977      -29.5282203819       23.8199741397  TIP3      630             0.0000000000
     20606       790  TIP3      H2             27.2337672599      -29.0273263131       23.0621021298  TIP3      630             0.0000000000
     20607       791  TIP3      OH2            33.8797516911      -32.9306961570       31.2108982278  TIP3      631             0.0000000000
     20608       791  TIP3      H1             33.4336138168      -32.0703439090       31.1066242566  TIP3      631             0.0000000000
     20609       791  TIP3      H2             34.1714242879      -33.0714409584       30.2947455536  TIP3      631             0.0000000000
     20610       792  TIP3      OH2            27.1497961479      -28.2397228674       21.6140834408  TIP3      632             0.0000000000
     20611       792  TIP3      H1             26.3170980559      -28.0070904892       21.1589230815  TIP3      632             0.0000000000
     20612       792  TIP3      H2             27.7405298798      -28.1864880138       20.8502488755  TIP3      632             0.0000000000
     20613       793  TIP3      OH2            25.1359816671      -23.5637879881       36.6778203723  TIP3      633             0.0000000000
     20614       793  TIP3      H1             25.6073488437      -23.1197964141       37.4060119926  TIP3      633             0.0000000000
     20615       793  TIP3      H2             24.2649331772      -23.7566516293       37.1233610837  TIP3      633             0.0000000000
     20616       794  TIP3      OH2            31.0042444331      -29.0799806427       28.7401033610  TIP3      634             0.0000000000
     20617       794  TIP3      H1             31.7699668016      -28.5491240186       29.0311737752  TIP3      634             0.0000000000
     20618       794  TIP3      H2             30.5878837935      -29.2539542183       29.6013405669  TIP3      634             0.0000000000
     20619       795  TIP3      OH2            25.7008780219      -31.7859345609       26.2348851070  TIP3      635             0.0000000000
     20620       795  TIP3      H1             25.9523202761      -32.4761867125       26.8781638970  TIP3      635             0.0000000000
     20621       795  TIP3      H2             26.0731802096      -32.1527638402       25.4210754957  TIP3      635             0.0000000000
     20622       796  TIP3      OH2            29.3729110633      -29.8336189798       31.5091063825  TIP3      636             0.0000000000
     20623       796  TIP3      H1             28.5027502219      -29.4593752218       31.7717547798  TIP3      636             0.0000000000
     20624       796  TIP3      H2             29.9433982931      -29.6747902991       32.2753947698  TIP3      636             0.0000000000
     20625       797  TIP3      OH2            29.9148392001      -23.7856723278       23.6290313516  TIP3      637             0.0000000000
     20626       797  TIP3      H1             29.2200138556      -24.2966541850       23.1543596852  TIP3      637             0.0000000000
     20627       797  TIP3      H2             29.4794553791      -23.6500234810       24.4983460475  TIP3      637             0.0000000000
     20628       798  TIP3      OH2            33.2824284513      -30.9226712745       22.1881492141  TIP3      638             0.0000000000
     20629       798  TIP3      H1             32.7758963294      -31.1122758146       21.3568920491  TIP3      638             0.0000000000
     20630       798  TIP3      H2             33.7228370434      -30.1015625237       21.8861409236  TIP3      638             0.0000000000
     20631       799  TIP3      OH2            31.1261791939      -23.5998443012       35.0197133461  TIP3      639             0.0000000000
     20632       799  TIP3      H1             31.7399999866      -24.2165057000       35.4223247027  TIP3      639             0.0000000000
     20633       799  TIP3      H2             31.5029817763      -22.7359503794       35.2828197534  TIP3      639             0.0000000000
     20634       800  TIP3      OH2           -34.9274970840      -28.8778151104       22.6026381523  TIP3      640             0.0000000000
     20635       800  TIP3      H1            -34.2087200110      -28.6288859314       23.2039135780  TIP3      640             0.0000000000
     20636       800  TIP3      H2            -34.6995193019      -28.3361117749       21.8095170761  TIP3      640             0.0000000000
     20637       801  TIP3      OH2            25.5353260612      -23.9721095955       29.2783858167  TIP3      641             0.0000000000
     20638       801  TIP3      H1             25.4324292511      -24.2685805625       28.3453864296  TIP3      641             0.0000000000
     20639       801  TIP3      H2             25.6753267097      -24.7974025284       29.7498518095  TIP3      641             0.0000000000
     20640       802  TIP3      OH2            32.0795570863      -22.2499137905       23.1268271670  TIP3      642             0.0000000000
     20641       802  TIP3      H1             31.6768521256      -21.3941088842       22.8680016446  TIP3      642             0.0000000000
     20642       802  TIP3      H2             31.2781139606      -22.8125115003       23.2019712628  TIP3      642             0.0000000000
     20643       803  TIP3      OH2            22.3070376153      -25.8780806857       34.4448937930  TIP3      643             0.0000000000
     20644       803  TIP3      H1             22.2431473026      -26.2776288310       35.3357464840  TIP3      643             0.0000000000
     20645       803  TIP3      H2             22.6675112826      -26.6168492926       33.9251270065  TIP3      643             0.0000000000
     20646       804  TIP3      OH2            28.9128911372      -26.6283372315       36.5629944350  TIP3      644             0.0000000000
     20647       804  TIP3      H1             28.6557561755      -27.1188860889       35.7639848905  TIP3      644             0.0000000000
     20648       804  TIP3      H2             29.8546523606      -26.8796935468       36.6486886155  TIP3      644             0.0000000000
     20649       805  TIP3      OH2            33.3672654529      -21.8922807191       35.1086157749  TIP3      645             0.0000000000
     20650       805  TIP3      H1             32.7735380305      -21.1237519052       35.1100256431  TIP3      645             0.0000000000
     20651       805  TIP3      H2             34.2106241229      -21.4791308505       35.3134801543  TIP3      645             0.0000000000
     20652       806  TIP3      OH2            27.7154169952      -20.9560296095       27.0242905705  TIP3      646             0.0000000000
     20653       806  TIP3      H1             28.0587893849      -20.1062579511       26.6571737922  TIP3      646             0.0000000000
     20654       806  TIP3      H2             26.7960989285      -20.8920428532       26.7350413134  TIP3      646             0.0000000000
     20655       807  TIP3      OH2            28.6897678962      -23.2182228209       26.0098103216  TIP3      647             0.0000000000
     20656       807  TIP3      H1             28.5140352397      -22.3212821309       26.3601855421  TIP3      647             0.0000000000
     20657       807  TIP3      H2             27.9039687269      -23.7118799655       26.3352672418  TIP3      647             0.0000000000
     20658       808  TIP3      OH2            29.9875185299      -19.0444226481       33.6758462261  TIP3      648             0.0000000000
     20659       808  TIP3      H1             30.7522293730      -18.5026528695       33.4352040597  TIP3      648             0.0000000000
     20660       808  TIP3      H2             30.4253642243      -19.6586868798       34.3115452184  TIP3      648             0.0000000000
     20661       809  TIP3      OH2            28.2268074297      -18.4977475130       26.1801426726  TIP3      649             0.0000000000
     20662       809  TIP3      H1             27.2783159886      -18.2891115301       26.1902391781  TIP3      649             0.0000000000
     20663       809  TIP3      H2             28.5788304430      -17.6354132548       26.4899199192  TIP3      649             0.0000000000
     20664       810  TIP3      OH2            32.7947731423      -22.9905872857       32.4491653321  TIP3      650             0.0000000000
     20665       810  TIP3      H1             32.4901421897      -23.0142128568       33.3749194767  TIP3      650             0.0000000000
     20666       810  TIP3      H2             33.3940166153      -23.7709568867       32.4300496252  TIP3      650             0.0000000000
     20667       811  TIP3      OH2            24.1382046758      -31.2540115547       34.1884159616  TIP3      651             0.0000000000
     20668       811  TIP3      H1             23.6522595257      -30.9259322961       34.9817693490  TIP3      651             0.0000000000
     20669       811  TIP3      H2             24.2115245774      -32.1907478256       34.4838651856  TIP3      651             0.0000000000
     20670       812  TIP3      OH2            24.1219013861      -19.5466170602       32.4883985237  TIP3      652             0.0000000000
     20671       812  TIP3      H1             24.3191379121      -20.4738803949       32.2709799060  TIP3      652             0.0000000000
     20672       812  TIP3      H2             25.0008613914      -19.1420419118       32.3952614123  TIP3      652             0.0000000000
     20673       813  TIP3      OH2            28.5602103417      -21.3464307210       21.3635654283  TIP3      653             0.0000000000
     20674       813  TIP3      H1             28.3984791856      -21.6175605931       22.2735657173  TIP3      653             0.0000000000
     20675       813  TIP3      H2             28.0218543222      -20.5366014598       21.3093013709  TIP3      653             0.0000000000
     20676       814  TIP3      OH2            32.8265965827      -31.1758646053       33.5088652107  TIP3      654             0.0000000000
     20677       814  TIP3      H1             33.4830862081      -31.1149904547       34.2228478543  TIP3      654             0.0000000000
     20678       814  TIP3      H2             32.8306511363      -32.1281578924       33.2859669624  TIP3      654             0.0000000000
     20679       815  TIP3      OH2            33.2603624887      -32.4205645462       24.2943138421  TIP3      655             0.0000000000
     20680       815  TIP3      H1             32.8982310003      -32.2987902247       23.3926299103  TIP3      655             0.0000000000
     20681       815  TIP3      H2             34.2204126663      -32.4277011776       24.1025602855  TIP3      655             0.0000000000
     20682       816  TIP3      OH2            31.1644162568      -19.6783254139       22.8595822394  TIP3      656             0.0000000000
     20683       816  TIP3      H1             31.0564327856      -19.4686214029       23.8019917408  TIP3      656             0.0000000000
     20684       816  TIP3      H2             31.8159736428      -19.0075185537       22.6152491544  TIP3      656             0.0000000000
     20685       817  TIP3      OH2            30.3388598086      -29.9104607716       25.5816335798  TIP3      657             0.0000000000
     20686       817  TIP3      H1             30.4928505566      -29.0726939536       26.0405245259  TIP3      657             0.0000000000
     20687       817  TIP3      H2             29.8687785980      -30.4174877629       26.2853741050  TIP3      657             0.0000000000
     20688       818  TIP3      OH2            30.7372577079      -29.4473757741       34.5364850735  TIP3      658             0.0000000000
     20689       818  TIP3      H1             31.1882669100      -28.9209554174       35.2126956549  TIP3      658             0.0000000000
     20690       818  TIP3      H2             31.4456744436      -30.0485637168       34.2087266737  TIP3      658             0.0000000000
     20691       819  TIP3      OH2            31.5414857651      -33.3770793654       26.0949620673  TIP3      659             0.0000000000
     20692       819  TIP3      H1             31.7814979074      -32.9727274935       26.9741334889  TIP3      659             0.0000000000
     20693       819  TIP3      H2             32.2429430536      -33.0051560720       25.5088070187  TIP3      659             0.0000000000
     20694       820  TIP3      OH2            26.8466987311      -32.3120246646       23.3478534433  TIP3      660             0.0000000000
     20695       820  TIP3      H1             26.9448833282      -31.3920900813       23.6719978691  TIP3      660             0.0000000000
     20696       820  TIP3      H2             27.7503850443      -32.6542105153       23.4871353511  TIP3      660             0.0000000000
     20697       821  TIP3      OH2            23.4440231043      -34.3361853776       29.6233868226  TIP3      661             0.0000000000
     20698       821  TIP3      H1             23.7381964752      -34.5030265226       28.7042880879  TIP3      661             0.0000000000
     20699       821  TIP3      H2             24.1472530296      -34.8361439491       30.1131037155  TIP3      661             0.0000000000
     20700       822  TIP3      OH2            23.5572383028      -20.4289021304       24.8897961168  TIP3      662             0.0000000000
     20701       822  TIP3      H1             22.8146063586      -19.9935532317       25.3348998766  TIP3      662             0.0000000000
     20702       822  TIP3      H2             23.6481573724      -19.7663370676       24.1707029352  TIP3      662             0.0000000000
     20703       823  TIP3      OH2            22.8063826452      -17.8550222411       36.9884774850  TIP3      663             0.0000000000
     20704       823  TIP3      H1             23.5806327104      -17.4270678513       37.4054353578  TIP3      663             0.0000000000
     20705       823  TIP3      H2             22.3422015000      -18.2393778290       37.7550859455  TIP3      663             0.0000000000
     20706       824  TIP3      OH2            26.9682818498      -19.3372772183       38.6125077746  TIP3      664             0.0000000000
     20707       824  TIP3      H1             27.9384914608      -19.3247816809       38.7299867778  TIP3      664             0.0000000000
     20708       824  TIP3      H2             26.8930756019      -19.9409256040       37.8453791915  TIP3      664             0.0000000000
     20709       825  TIP3      OH2            34.1605195196      -20.3959856488       37.7081830795  TIP3      665             0.0000000000
     20710       825  TIP3      H1             33.6712740264      -21.2351934520       37.8220519594  TIP3      665             0.0000000000
     20711       825  TIP3      H2             34.6601030361      -20.5159518803       36.8904748296  TIP3      665             0.0000000000
     20712       826  TIP3      OH2            22.8944131550      -23.7374904047       37.9492542051  TIP3      666             0.0000000000
     20713       826  TIP3      H1             22.0632959392      -24.2216761248       38.0680126895  TIP3      666             0.0000000000
     20714       826  TIP3      H2             22.5818785120      -22.8095183963       38.0598832249  TIP3      666             0.0000000000
     20715       827  TIP3      OH2            29.3422606585      -23.8954558261       37.4519753367  TIP3      667             0.0000000000
     20716       827  TIP3      H1             29.2837242623      -23.2573985442       36.7048525987  TIP3      667             0.0000000000
     20717       827  TIP3      H2             29.5570135021      -24.7245935264       36.9813067345  TIP3      667             0.0000000000
     20718       828  TIP3      OH2            23.6605777311      -26.7676930223       37.6841774407  TIP3      668             0.0000000000
     20719       828  TIP3      H1             23.6771523937      -27.6799239926       38.0615626034  TIP3      668             0.0000000000
     20720       828  TIP3      H2             23.6636976922      -26.2562657844       38.5210207528  TIP3      668             0.0000000000
     20721       829  TIP3      OH2            28.1560393705      -25.3110708345       22.3630694328  TIP3      669             0.0000000000
     20722       829  TIP3      H1             27.6585955035      -25.8784919218       22.9702729855  TIP3      669             0.0000000000
     20723       829  TIP3      H2             27.6387881330      -25.4116073704       21.5475669643  TIP3      669             0.0000000000
     20724       830  TIP3      OH2            27.1088874650      -27.4367091563       34.4608697382  TIP3      670             0.0000000000
     20725       830  TIP3      H1             26.5644564266      -26.6228862860       34.4094319493  TIP3      670             0.0000000000
     20726       830  TIP3      H2             27.8963677983      -27.1881178351       33.9194611909  TIP3      670             0.0000000000
     20727       831  TIP3      OH2            32.9298348035      -25.0426178596       38.4134130934  TIP3      671             0.0000000000
     20728       831  TIP3      H1             33.6435685210      -25.5568031881       37.9965898455  TIP3      671             0.0000000000
     20729       831  TIP3      H2             32.4948959085      -25.7346747787       38.9319392959  TIP3      671             0.0000000000
     20730       832  TIP3      OH2            28.1802848317      -30.0838211579       35.6662650053  TIP3      672             0.0000000000
     20731       832  TIP3      H1             28.3852400025      -30.7373601611       34.9573587659  TIP3      672             0.0000000000
     20732       832  TIP3      H2             27.8368348159      -29.3610763379       35.1163238329  TIP3      672             0.0000000000
     20733       833  TIP3      OH2            28.3021119388      -31.7406471754       33.4106643907  TIP3      673             0.0000000000
     20734       833  TIP3      H1             28.9335423520      -31.4794965263       32.7174527640  TIP3      673             0.0000000000
     20735       833  TIP3      H2             27.7328671146      -32.3596306269       32.8997134190  TIP3      673             0.0000000000
     20736       834  TIP3      OH2            29.5030458707      -26.1677234897       33.4730664287  TIP3      674             0.0000000000
     20737       834  TIP3      H1             30.4525301399      -26.3243342982       33.3939761328  TIP3      674             0.0000000000
     20738       834  TIP3      H2             29.3834569190      -25.3450209394       32.9553702170  TIP3      674             0.0000000000
     20739       835  TIP3      OH2            34.4258833780      -28.1453315410       38.3947201718  TIP3      675             0.0000000000
     20740       835  TIP3      H1             34.5040788399      -29.0143198002       37.9733777960  TIP3      675             0.0000000000
     20741       835  TIP3      H2             35.3693259205      -27.8997187872       38.4517723729  TIP3      675             0.0000000000
     20742       836  TIP3      OH2            26.2988518148      -28.2990900768       38.0652731151  TIP3      676             0.0000000000
     20743       836  TIP3      H1             25.5321350297      -28.9147937809       38.1118187997  TIP3      676             0.0000000000
     20744       836  TIP3      H2             26.9564216879      -28.8787084481       37.6511655836  TIP3      676             0.0000000000
     20745       837  TIP3      OH2            29.5761208102      -33.9549082337       34.3148593529  TIP3      677             0.0000000000
     20746       837  TIP3      H1             28.9194392892      -33.2327432574       34.3760868501  TIP3      677             0.0000000000
     20747       837  TIP3      H2             29.6207559860      -33.9918236000       33.3327488149  TIP3      677             0.0000000000
     20748       838  TIP3      OH2            30.2135385572      -29.8634164423       37.5419480707  TIP3      678             0.0000000000
     20749       838  TIP3      H1             29.5490552430      -30.1107535088       38.2058448504  TIP3      678             0.0000000000
     20750       838  TIP3      H2             29.7100592565      -30.0139507084       36.7109766594  TIP3      678             0.0000000000
     20751       839  TIP3      OH2            32.8695302977      -30.7372046210       36.5423780753  TIP3      679             0.0000000000
     20752       839  TIP3      H1             32.0427131846      -30.8462028373       37.0459885005  TIP3      679             0.0000000000
     20753       839  TIP3      H2             33.5147761564      -31.2485449499       37.0742785378  TIP3      679             0.0000000000
     20754       840  TIP3      OH2            34.6396348873      -31.9633964879       38.4530358785  TIP3      680             0.0000000000
     20755       840  TIP3      H1             34.8401593701      -32.9296387211       38.4266909707  TIP3      680             0.0000000000
     20756       840  TIP3      H2             34.3575744113      -31.8286147439       39.3836576998  TIP3      680             0.0000000000
     20757       841  TIP3      OH2            24.7932615292      -30.9849927755       37.8437723748  TIP3      681             0.0000000000
     20758       841  TIP3      H1             24.0528494867      -31.2719424640       37.2871045888  TIP3      681             0.0000000000
     20759       841  TIP3      H2             24.4563551882      -31.3106389545       38.7148189668  TIP3      681             0.0000000000
     20760       842  TIP3      OH2            30.4494580727       35.2890399798       37.1000746891  TIP3      682             0.0000000000
     20761       842  TIP3      H1             30.4075829577       34.3351593615       37.2948686052  TIP3      682             0.0000000000
     20762       842  TIP3      H2             30.1951312035       35.3703572860       36.1660712133  TIP3      682             0.0000000000
     20763       843  TIP3      OH2            29.8320076972      -33.0492619649       39.0514761218  TIP3      683             0.0000000000
     20764       843  TIP3      H1             30.0424416114      -33.6993792185       38.3487314187  TIP3      683             0.0000000000
     20765       843  TIP3      H2             29.1083951708      -32.5382326716       38.6546739159  TIP3      683             0.0000000000
     20766       844  TIP3      OH2            21.2849375217      -16.3790270064       26.4130297558  TIP3      684             0.0000000000
     20767       844  TIP3      H1             21.4232013181      -16.7099425837       25.4851902718  TIP3      684             0.0000000000
     20768       844  TIP3      H2             21.6871150010      -17.1198922085       26.9034821049  TIP3      684             0.0000000000
     20769       845  TIP3      OH2            22.3950640264      -18.4019154550       28.1047162792  TIP3      685             0.0000000000
     20770       845  TIP3      H1             21.6333700882      -18.9849020012       28.2698816394  TIP3      685             0.0000000000
     20771       845  TIP3      H2             22.6963282851      -18.1534663518       29.0062176344  TIP3      685             0.0000000000
     20772       846  TIP3      OH2            22.3713048595      -25.2616105238       30.7278749895  TIP3      686             0.0000000000
     20773       846  TIP3      H1             22.0755868851      -25.5524628119       29.8332881509  TIP3      686             0.0000000000
     20774       846  TIP3      H2             23.3028991639      -25.5540782926       30.7707376423  TIP3      686             0.0000000000
     20775       847  TIP3      OH2            22.2195291123      -30.0264022998       36.4743025918  TIP3      687             0.0000000000
     20776       847  TIP3      H1             22.2559257358      -29.9893448601       37.4581991349  TIP3      687             0.0000000000
     20777       847  TIP3      H2             21.6009695687      -30.7973954596       36.4459500235  TIP3      687             0.0000000000
     20778       848  TIP3      OH2            23.4339067497      -31.5765445388       29.5537334339  TIP3      688             0.0000000000
     20779       848  TIP3      H1             23.7354122382      -32.4880073047       29.7725863877  TIP3      688             0.0000000000
     20780       848  TIP3      H2             24.2523383935      -31.0702142613       29.7453870119  TIP3      688             0.0000000000
     20781       849  TIP3      OH2            21.6713933363      -28.4869964265       30.8289677735  TIP3      689             0.0000000000
     20782       849  TIP3      H1             22.4610939972      -27.9568387212       30.6360229223  TIP3      689             0.0000000000
     20783       849  TIP3      H2             21.0351228894      -27.7991344789       31.1294659256  TIP3      689             0.0000000000
     20784       850  TIP3      OH2            21.5469096561      -31.6455700176       25.0116979044  TIP3      690             0.0000000000
     20785       850  TIP3      H1             20.7496947531      -31.7397637974       24.4663017716  TIP3      690             0.0000000000
     20786       850  TIP3      H2             22.2200615668      -31.5653465123       24.3083790179  TIP3      690             0.0000000000
     20787       851  TIP3      OH2            21.1529302452      -34.2605948154       32.3899991027  TIP3      691             0.0000000000
     20788       851  TIP3      H1             21.9583261794      -34.5790670386       32.8349204643  TIP3      691             0.0000000000
     20789       851  TIP3      H2             21.2774755411      -33.2885664013       32.3502691834  TIP3      691             0.0000000000
     20790       852  TIP3      OH2            24.3682197522      -20.5437948835       37.5631624940  TIP3      692             0.0000000000
     20791       852  TIP3      H1             23.4966167461      -20.6367102615       37.9958885486  TIP3      692             0.0000000000
     20792       852  TIP3      H2             24.9249907036      -20.6044464605       38.3739250757  TIP3      692             0.0000000000
     20793       853  TIP3      OH2            27.1820280100      -19.3003107707       33.6175772537  TIP3      693             0.0000000000
     20794       853  TIP3      H1             27.1268844574      -18.3562394546       33.3479654607  TIP3      693             0.0000000000
     20795       853  TIP3      H2             28.1511194018      -19.3939509311       33.7590336871  TIP3      693             0.0000000000
     20796       854  TIP3      OH2            30.8712260535      -17.9295450905       36.5281350423  TIP3      694             0.0000000000
     20797       854  TIP3      H1             31.2005215824      -18.2742157612       37.3940539610  TIP3      694             0.0000000000
     20798       854  TIP3      H2             31.7323875280      -17.6786696039       36.1419256817  TIP3      694             0.0000000000
     20799       855  TIP3      OH2            33.2599374517      -16.9500169651       35.9056218869  TIP3      695             0.0000000000
     20800       855  TIP3      H1             33.9386455751      -17.6632541353       35.9294775019  TIP3      695             0.0000000000
     20801       855  TIP3      H2             33.3250606599      -16.6292567796       36.8291798696  TIP3      695             0.0000000000
     20802       856  TIP3      OH2            24.2257158699      -16.3170491563       33.4729336048  TIP3      696             0.0000000000
     20803       856  TIP3      H1             23.4881150626      -15.8248833670       33.0669742995  TIP3      696             0.0000000000
     20804       856  TIP3      H2             24.1886066433      -15.9310774294       34.3704743264  TIP3      696             0.0000000000
     20805       857  TIP3      OH2            26.5842196775      -16.8204628373       32.4652236678  TIP3      697             0.0000000000
     20806       857  TIP3      H1             25.6439016311      -16.6574994810       32.7351491946  TIP3      697             0.0000000000
     20807       857  TIP3      H2             26.7451178373      -16.0946847015       31.8276207313  TIP3      697             0.0000000000
     20808       858  TIP3      OH2            31.5781334505      -16.7008727123       31.3312252002  TIP3      698             0.0000000000
     20809       858  TIP3      H1             30.7137823114      -16.4086323939       30.9782643627  TIP3      698             0.0000000000
     20810       858  TIP3      H2             31.4895554915      -16.4440997879       32.2682059072  TIP3      698             0.0000000000
     20811       859  TIP3      OH2            33.3516682070      -18.3274024837       33.2212907364  TIP3      699             0.0000000000
     20812       859  TIP3      H1             33.1735620153      -17.5894629453       33.8248190652  TIP3      699             0.0000000000
     20813       859  TIP3      H2             34.0251696229      -18.7830052415       33.7795677068  TIP3      699             0.0000000000
     20814       860  TIP3      OH2            23.9053649229      -17.9124431701       30.3257803769  TIP3      700             0.0000000000
     20815       860  TIP3      H1             23.7098774802      -18.3371650026       31.1871704168  TIP3      700             0.0000000000
     20816       860  TIP3      H2             24.6004282372      -18.4976931168       29.9363827009  TIP3      700             0.0000000000
     20817       861  TIP3      OH2            26.0177401492      -19.1428806939       29.1131739929  TIP3      701             0.0000000000
     20818       861  TIP3      H1             26.1508976838      -20.0204486710       29.5146851670  TIP3      701             0.0000000000
     20819       861  TIP3      H2             26.8412087609      -18.7034530450       29.4152779551  TIP3      701             0.0000000000
     20820       862  TIP3      OH2            28.2835721844      -18.8594144935       30.5405548930  TIP3      702             0.0000000000
     20821       862  TIP3      H1             28.7229287367      -19.7133807169       30.3423363194  TIP3      702             0.0000000000
     20822       862  TIP3      H2             28.4562845232      -18.7775930420       31.4889283719  TIP3      702             0.0000000000
     20823       863  TIP3      OH2            32.2722793942      -32.6005165799       28.4705941829  TIP3      703             0.0000000000
     20824       863  TIP3      H1             31.5392680120      -32.8852990541       29.0366297247  TIP3      703             0.0000000000
     20825       863  TIP3      H2             32.9137595634      -33.3260213290       28.6326060935  TIP3      703             0.0000000000
     20826       864  TIP3      OH2            23.9238719767      -34.9720908241       26.9664034623  TIP3      704             0.0000000000
     20827       864  TIP3      H1             23.8195180700      -34.5920241002       26.0807414514  TIP3      704             0.0000000000
     20828       864  TIP3      H2             24.3131533600      -35.8406291011       26.7520617705  TIP3      704             0.0000000000
     20829       865  TIP3      OH2            22.9187743733      -33.9064509662       23.2940648625  TIP3      705             0.0000000000
     20830       865  TIP3      H1             23.2874575417      -34.0007632570       22.4068543318  TIP3      705             0.0000000000
     20831       865  TIP3      H2             22.0905316460      -33.4503166201       23.0386122675  TIP3      705             0.0000000000
     20832       866  TIP3      OH2            28.5554979726      -34.1364589799       26.4985186844  TIP3      706             0.0000000000
     20833       866  TIP3      H1             29.4618044788      -33.7976793339       26.5848798077  TIP3      706             0.0000000000
     20834       866  TIP3      H2             28.4988309089      -34.6479543341       27.3209530616  TIP3      706             0.0000000000
     20835       867  TIP3      OH2            34.1750600913      -34.3907139391       28.6550376245  TIP3      707             0.0000000000
     20836       867  TIP3      H1             34.7673761307      -34.1847958883       27.9127883225  TIP3      707             0.0000000000
     20837       867  TIP3      H2             33.8701240109      -35.2716031312       28.3978536168  TIP3      707             0.0000000000
     20838       868  TIP3      OH2            24.7673745121      -32.6153902417       21.2517506390  TIP3      708             0.0000000000
     20839       868  TIP3      H1             25.2755307662      -33.4342063504       21.0903450322  TIP3      708             0.0000000000
     20840       868  TIP3      H2             25.0851023379      -32.4266262000       22.1532047404  TIP3      708             0.0000000000
     20841       869  TIP3      OH2            30.2179291634      -32.0873844609       23.7013591089  TIP3      709             0.0000000000
     20842       869  TIP3      H1             30.5568434768      -32.4301717117       24.5521646879  TIP3      709             0.0000000000
     20843       869  TIP3      H2             30.4660912500      -31.1555685229       23.7681269621  TIP3      709             0.0000000000
     20844       870  TIP3      OH2            23.4933528985      -33.1325102696       36.0022435087  TIP3      710             0.0000000000
     20845       870  TIP3      H1             22.7894918997      -33.7365966432       36.2613777932  TIP3      710             0.0000000000
     20846       870  TIP3      H2             24.2679552954      -33.6780469621       36.2712288677  TIP3      710             0.0000000000
     20847       871  TIP3      OH2            26.9359068049      -33.9623085674       38.8164867324  TIP3      711             0.0000000000
     20848       871  TIP3      H1             27.7323593779      -34.4693700554       39.0307628512  TIP3      711             0.0000000000
     20849       871  TIP3      H2             26.5343307327      -34.5153605272       38.1174005880  TIP3      711             0.0000000000
     20850       872  TIP3      OH2            34.9296494785      -34.6476470985       38.0075096166  TIP3      712             0.0000000000
     20851       872  TIP3      H1             34.2224345535      -35.1358297486       38.4859389415  TIP3      712             0.0000000000
     20852       872  TIP3      H2             35.7003780728      -34.8646264808       38.5632339822  TIP3      712             0.0000000000
     20853       873  TIP3      OH2           -23.1624643659       -6.2445546485       26.8392619346  TIP3      713             0.0000000000
     20854       873  TIP3      H1            -23.3071382696       -5.2827026729       26.8877347202  TIP3      713             0.0000000000
     20855       873  TIP3      H2            -23.6521932138       -6.4616631542       26.0173372600  TIP3      713             0.0000000000
     20856       874  TIP3      OH2           -24.6250437784       -7.2711914171       30.5272544779  TIP3      714             0.0000000000
     20857       874  TIP3      H1            -23.8756334033       -7.7064159276       30.9865838457  TIP3      714             0.0000000000
     20858       874  TIP3      H2            -24.6680111925       -7.7598239310       29.6858089336  TIP3      714             0.0000000000
     20859       875  TIP3      OH2           -31.5853708301       -7.2189819547       31.9510713602  TIP3      715             0.0000000000
     20860       875  TIP3      H1            -31.3827681601       -7.8709182191       32.6343799066  TIP3      715             0.0000000000
     20861       875  TIP3      H2            -31.0459283917       -6.4526004120       32.2073850057  TIP3      715             0.0000000000
     20862       876  TIP3      OH2           -21.0070224829       -3.7996752706       28.2380388398  TIP3      716             0.0000000000
     20863       876  TIP3      H1            -20.7982129656       -4.7579180628       28.2037661168  TIP3      716             0.0000000000
     20864       876  TIP3      H2            -20.7519269910       -3.5507892995       29.1347276926  TIP3      716             0.0000000000
     20865       877  TIP3      OH2           -32.1434858878       -3.6590466650       29.8800273449  TIP3      717             0.0000000000
     20866       877  TIP3      H1            -31.5625491952       -4.3569773767       29.5154712858  TIP3      717             0.0000000000
     20867       877  TIP3      H2            -31.4924856633       -3.0535238791       30.3149641443  TIP3      717             0.0000000000
     20868       878  TIP3      OH2           -34.4851373224       -8.1743151242       25.1952159029  TIP3      718             0.0000000000
     20869       878  TIP3      H1            -34.3169993255       -7.7056568895       26.0388712826  TIP3      718             0.0000000000
     20870       878  TIP3      H2            -34.7580139699       -9.0647978801       25.4950504686  TIP3      718             0.0000000000
     20871       879  TIP3      OH2           -33.7163726618       -7.3540298244       27.9654708224  TIP3      719             0.0000000000
     20872       879  TIP3      H1            -33.1916071082       -8.0848940435       28.3810898113  TIP3      719             0.0000000000
     20873       879  TIP3      H2            -33.0201602880       -6.7166239691       27.7346730781  TIP3      719             0.0000000000
     20874       880  TIP3      OH2           -23.2123204625        1.4135615524       28.3770350159  TIP3      720             0.0000000000
     20875       880  TIP3      H1            -22.4436224013        0.8495319124       28.1535590079  TIP3      720             0.0000000000
     20876       880  TIP3      H2            -23.6245152528        0.8613909890       29.0536780695  TIP3      720             0.0000000000
     20877       881  TIP3      OH2           -26.2638849977       -4.6198185324       31.0251971683  TIP3      721             0.0000000000
     20878       881  TIP3      H1            -25.9579206540       -5.3639507668       30.4835262654  TIP3      721             0.0000000000
     20879       881  TIP3      H2            -25.4176865849       -4.2112197805       31.3003840870  TIP3      721             0.0000000000
     20880       882  TIP3      OH2           -17.6607996440      -12.8219622832       30.9802060084  TIP3      722             0.0000000000
     20881       882  TIP3      H1            -17.4995044189      -12.2298757333       31.7323936474  TIP3      722             0.0000000000
     20882       882  TIP3      H2            -16.9915813865      -12.4509757489       30.3720830706  TIP3      722             0.0000000000
     20883       883  TIP3      OH2           -22.5064256331      -10.2767624252       31.2163504025  TIP3      723             0.0000000000
     20884       883  TIP3      H1            -22.5340371015      -11.2508533122       31.3008586525  TIP3      723             0.0000000000
     20885       883  TIP3      H2            -22.3163001826      -10.2291629691       30.2626995055  TIP3      723             0.0000000000
     20886       884  TIP3      OH2           -28.7459438296      -10.8619850272       28.4149877709  TIP3      724             0.0000000000
     20887       884  TIP3      H1            -29.2486966764      -10.3528576102       27.7511938100  TIP3      724             0.0000000000
     20888       884  TIP3      H2            -29.1090626190      -11.7719473919       28.3157784480  TIP3      724             0.0000000000
     20889       885  TIP3      OH2           -22.0506195473      -11.8568940568       26.8981913478  TIP3      725             0.0000000000
     20890       885  TIP3      H1            -21.3949426691      -12.2762008216       27.4979813441  TIP3      725             0.0000000000
     20891       885  TIP3      H2            -21.5976291912      -11.0191171041       26.7318214664  TIP3      725             0.0000000000
     20892       886  TIP3      OH2           -32.5961067149       -9.5600440326       28.9143743341  TIP3      726             0.0000000000
     20893       886  TIP3      H1            -32.2177422982      -10.2561359310       29.4791817989  TIP3      726             0.0000000000
     20894       886  TIP3      H2            -32.7316419676      -10.0643448967       28.0839575906  TIP3      726             0.0000000000
     20895       887  TIP3      OH2           -28.0355245897       -7.9199174822       28.1512661448  TIP3      727             0.0000000000
     20896       887  TIP3      H1            -27.3231437682       -8.5053954673       28.5093075797  TIP3      727             0.0000000000
     20897       887  TIP3      H2            -28.3651651955       -8.5003931102       27.4333302558  TIP3      727             0.0000000000
     20898       888  TIP3      OH2           -17.4988678223      -11.9125866215       33.7876924447  TIP3      728             0.0000000000
     20899       888  TIP3      H1            -17.8964322642      -11.0923178601       33.4053998545  TIP3      728             0.0000000000
     20900       888  TIP3      H2            -17.2531600104      -11.6022534947       34.6726809081  TIP3      728             0.0000000000
     20901       889  TIP3      OH2           -30.0281630906      -13.2070135016       32.1742947031  TIP3      729             0.0000000000
     20902       889  TIP3      H1            -30.4918488820      -12.6870447019       31.4831228132  TIP3      729             0.0000000000
     20903       889  TIP3      H2            -30.7736736391      -13.3342886749       32.7870967905  TIP3      729             0.0000000000
     20904       890  TIP3      OH2           -23.6221918876       -3.5226843547       25.9958479451  TIP3      730             0.0000000000
     20905       890  TIP3      H1            -24.1035650674       -3.6167268074       25.1467386931  TIP3      730             0.0000000000
     20906       890  TIP3      H2            -23.8099304337       -2.5902611382       26.2378303266  TIP3      730             0.0000000000
     20907       891  TIP3      OH2           -28.6598182916       -5.6108890300       31.7942417413  TIP3      731             0.0000000000
     20908       891  TIP3      H1            -29.2209049547       -5.0055253313       32.3410164796  TIP3      731             0.0000000000
     20909       891  TIP3      H2            -27.8663633315       -5.0415072868       31.6770621056  TIP3      731             0.0000000000
     20910       892  TIP3      OH2           -20.0730940617      -12.8401964625       28.4501492413  TIP3      732             0.0000000000
     20911       892  TIP3      H1            -19.8096269985      -13.4808145827       29.1318517644  TIP3      732             0.0000000000
     20912       892  TIP3      H2            -19.5079916250      -12.0860668809       28.6610514521  TIP3      732             0.0000000000
     20913       893  TIP3      OH2           -31.0922071692      -11.3354849751       30.3034594735  TIP3      733             0.0000000000
     20914       893  TIP3      H1            -30.4279491838      -10.6513988992       30.4938025218  TIP3      733             0.0000000000
     20915       893  TIP3      H2            -30.6862561212      -11.8023417752       29.5296898587  TIP3      733             0.0000000000
     20916       894  TIP3      OH2           -29.8554926991       -3.5615251339       33.0134663687  TIP3      734             0.0000000000
     20917       894  TIP3      H1            -29.9997137782       -2.8437398408       32.3468690351  TIP3      734             0.0000000000
     20918       894  TIP3      H2            -30.7224104571       -3.5737268795       33.4816431660  TIP3      734             0.0000000000
     20919       895  TIP3      OH2           -33.9673937784       -3.9728582077       24.1739167789  TIP3      735             0.0000000000
     20920       895  TIP3      H1            -34.9144123072       -4.0720789477       24.0353221333  TIP3      735             0.0000000000
     20921       895  TIP3      H2            -33.8730939730       -3.4755473122       25.0004090174  TIP3      735             0.0000000000
     20922       896  TIP3      OH2           -20.1392385897       -2.1811794691       31.1463622192  TIP3      736             0.0000000000
     20923       896  TIP3      H1            -21.1016986832       -1.9755339345       31.1351910913  TIP3      736             0.0000000000
     20924       896  TIP3      H2            -19.8197584743       -1.4572059186       30.5675949050  TIP3      736             0.0000000000
     20925       897  TIP3      OH2           -20.2367642453      -13.7010906679       32.2943909460  TIP3      737             0.0000000000
     20926       897  TIP3      H1            -20.9822701222      -13.2194958832       31.8695336112  TIP3      737             0.0000000000
     20927       897  TIP3      H2            -19.5124860096      -13.5209147541       31.6681652008  TIP3      737             0.0000000000
     20928       898  TIP3      OH2           -26.9797714946      -15.6736117198       29.6603264699  TIP3      738             0.0000000000
     20929       898  TIP3      H1            -27.0742991482      -16.6552760141       29.5622238508  TIP3      738             0.0000000000
     20930       898  TIP3      H2            -27.7435416766      -15.5223951775       30.2665035833  TIP3      738             0.0000000000
     20931       899  TIP3      OH2           -21.5361255471       -0.4922356548       27.4339818452  TIP3      739             0.0000000000
     20932       899  TIP3      H1            -21.1268567761       -1.2221325864       26.9082725824  TIP3      739             0.0000000000
     20933       899  TIP3      H2            -21.0303462119        0.2915684918       27.0939816933  TIP3      739             0.0000000000
     20934       900  TIP3      OH2           -20.7008442020       -2.4838414649       25.8385182019  TIP3      740             0.0000000000
     20935       900  TIP3      H1            -21.1607861609       -3.0750695117       25.2218590290  TIP3      740             0.0000000000
     20936       900  TIP3      H2            -20.8385576262       -2.9680198112       26.6909984668  TIP3      740             0.0000000000
     20937       901  TIP3      OH2           -19.2905846086       -3.9826161364       34.6761646988  TIP3      741             0.0000000000
     20938       901  TIP3      H1            -19.3659294390       -4.6627761616       33.9629310499  TIP3      741             0.0000000000
     20939       901  TIP3      H2            -19.3000147576       -3.1530484053       34.1465764847  TIP3      741             0.0000000000
     20940       902  TIP3      OH2           -24.3234812118       -6.8180369165       24.5101248579  TIP3      742             0.0000000000
     20941       902  TIP3      H1            -25.1557083066       -7.2882859923       24.7506993031  TIP3      742             0.0000000000
     20942       902  TIP3      H2            -24.7147051165       -5.9950115794       24.1597086213  TIP3      742             0.0000000000
     20943       903  TIP3      OH2           -23.9030253767       -8.9631299574       20.7536116957  TIP3      743             0.0000000000
     20944       903  TIP3      H1            -23.8533861833       -9.0982354458       21.7098791847  TIP3      743             0.0000000000
     20945       903  TIP3      H2            -24.8561879195       -9.0711114497       20.6093206454  TIP3      743             0.0000000000
     20946       904  TIP3      OH2           -17.4950538059       -7.3861496097       32.9356061141  TIP3      744             0.0000000000
     20947       904  TIP3      H1            -18.1394763863       -6.7050017292       32.6239791250  TIP3      744             0.0000000000
     20948       904  TIP3      H2            -16.9183437923       -7.4241492657       32.1282194646  TIP3      744             0.0000000000
     20949       905  TIP3      OH2           -20.8852100676       -6.7702767516       25.4249093799  TIP3      745             0.0000000000
     20950       905  TIP3      H1            -21.7467823828       -6.6569864308       25.8838130866  TIP3      745             0.0000000000
     20951       905  TIP3      H2            -20.2941378743       -6.7371163056       26.1950205318  TIP3      745             0.0000000000
     20952       906  TIP3      OH2           -21.1478057909       -8.1960993783       34.3127529915  TIP3      746             0.0000000000
     20953       906  TIP3      H1            -21.5702197692       -7.4265623684       34.7283752442  TIP3      746             0.0000000000
     20954       906  TIP3      H2            -21.5166249007       -8.1349104776       33.4138272993  TIP3      746             0.0000000000
     20955       907  TIP3      OH2           -29.0486027630       -5.8205316480       26.7998084595  TIP3      747             0.0000000000
     20956       907  TIP3      H1            -29.5303082168       -6.2178267771       26.0347189867  TIP3      747             0.0000000000
     20957       907  TIP3      H2            -28.6234531766       -6.6274628909       27.1799159193  TIP3      747             0.0000000000
     20958       908  TIP3      OH2           -27.6446089969       -2.9546238318       29.1084325615  TIP3      748             0.0000000000
     20959       908  TIP3      H1            -27.9080701223       -3.8264707107       28.7810152120  TIP3      748             0.0000000000
     20960       908  TIP3      H2            -27.5191200407       -3.1507574908       30.0569634468  TIP3      748             0.0000000000
     20961       909  TIP3      OH2           -29.0254584883       -7.8738323382       30.5480492979  TIP3      749             0.0000000000
     20962       909  TIP3      H1            -28.6550188404       -7.7984016741       29.6393881133  TIP3      749             0.0000000000
     20963       909  TIP3      H2            -28.8474083248       -6.9719379985       30.9143848510  TIP3      749             0.0000000000
     20964       910  TIP3      OH2           -22.7543419519       -1.6431960766       31.4192810382  TIP3      750             0.0000000000
     20965       910  TIP3      H1            -23.1055104023       -1.0735037407       32.1180501955  TIP3      750             0.0000000000
     20966       910  TIP3      H2            -23.0484436296       -2.5236874713       31.7430809807  TIP3      750             0.0000000000
     20967       911  TIP3      OH2           -28.1974553178       -3.0743611204       34.9880551735  TIP3      751             0.0000000000
     20968       911  TIP3      H1            -28.9221875539       -2.8086827460       35.5961113540  TIP3      751             0.0000000000
     20969       911  TIP3      H2            -28.7232723818       -3.3208683304       34.1760029169  TIP3      751             0.0000000000
     20970       912  TIP3      OH2           -31.8147594798       -8.6124125165       35.5969154518  TIP3      752             0.0000000000
     20971       912  TIP3      H1            -31.0933356455       -7.9511206299       35.7326847620  TIP3      752             0.0000000000
     20972       912  TIP3      H2            -32.2632748143       -8.1453479861       34.8644157716  TIP3      752             0.0000000000
     20973       913  TIP3      OH2           -24.1253374396       -0.8721922230       26.8693575455  TIP3      753             0.0000000000
     20974       913  TIP3      H1            -23.1895125803       -0.7098488561       27.1368993569  TIP3      753             0.0000000000
     20975       913  TIP3      H2            -24.4426510851        0.0437202161       26.7312419202  TIP3      753             0.0000000000
     20976       914  TIP3      OH2           -29.9930579250       -1.6565986048       36.4042741140  TIP3      754             0.0000000000
     20977       914  TIP3      H1            -29.7111119732       -1.2235317615       35.5651228187  TIP3      754             0.0000000000
     20978       914  TIP3      H2            -30.9502470481       -1.4765238663       36.3307335299  TIP3      754             0.0000000000
     20979       915  TIP3      OH2           -30.3156305758       -6.6022259278       24.5816427148  TIP3      755             0.0000000000
     20980       915  TIP3      H1            -30.5613873696       -5.8332525244       24.0170574875  TIP3      755             0.0000000000
     20981       915  TIP3      H2            -31.0865273918       -7.1632000659       24.4040580994  TIP3      755             0.0000000000
     20982       916  TIP3      OH2           -34.2431799176       -4.8393492484       33.6059427381  TIP3      756             0.0000000000
     20983       916  TIP3      H1            -34.9371278669       -4.4227695119       34.1521251925  TIP3      756             0.0000000000
     20984       916  TIP3      H2            -34.2392416756       -5.7826371620       33.8831329524  TIP3      756             0.0000000000
     20985       917  TIP3      OH2           -34.3615324094       -1.6687305129       29.7244524413  TIP3      757             0.0000000000
     20986       917  TIP3      H1            -33.5244280263       -1.8896627675       30.1845672904  TIP3      757             0.0000000000
     20987       917  TIP3      H2            -34.7260650709       -1.0386563147       30.3618563796  TIP3      757             0.0000000000
     20988       918  TIP3      OH2           -16.7315469116       -1.3457246465       36.1564463021  TIP3      758             0.0000000000
     20989       918  TIP3      H1            -17.0662929864       -2.1480838623       35.7294612824  TIP3      758             0.0000000000
     20990       918  TIP3      H2            -17.5898966195       -0.9797892064       36.4955664711  TIP3      758             0.0000000000
     20991       919  TIP3      OH2           -25.9662678625       -1.4421747885       35.1634384226  TIP3      759             0.0000000000
     20992       919  TIP3      H1            -25.8653567102       -0.6706187872       35.7543778947  TIP3      759             0.0000000000
     20993       919  TIP3      H2            -26.7020809285       -1.9695422184       35.5290456780  TIP3      759             0.0000000000
     20994       920  TIP3      OH2           -24.2028655259        2.4809246701       24.1917418651  TIP3      760             0.0000000000
     20995       920  TIP3      H1            -24.8793569571        2.2851453822       24.8945115840  TIP3      760             0.0000000000
     20996       920  TIP3      H2            -24.0498364954        3.4036567144       24.4411256199  TIP3      760             0.0000000000
     20997       921  TIP3      OH2           -31.3941243149        0.9085944398       26.2745330442  TIP3      761             0.0000000000
     20998       921  TIP3      H1            -30.9222427604        0.3656735081       26.9478645575  TIP3      761             0.0000000000
     20999       921  TIP3      H2            -32.2541190613        0.4481750873       26.2023606789  TIP3      761             0.0000000000
     21000       922  TIP3      OH2           -22.0554593766        0.8609290986       23.9955938605  TIP3      762             0.0000000000
     21001       922  TIP3      H1            -22.8242399208        1.4582495438       24.0961845636  TIP3      762             0.0000000000
     21002       922  TIP3      H2            -22.0966069116        0.2918198920       24.7785077415  TIP3      762             0.0000000000
     21003       923  TIP3      OH2           -19.6994330179       -9.5743425701       36.4713300115  TIP3      763             0.0000000000
     21004       923  TIP3      H1            -20.1148545359       -9.0795425139       35.7290608737  TIP3      763             0.0000000000
     21005       923  TIP3      H2            -19.7933074321      -10.5042999421       36.1808990747  TIP3      763             0.0000000000
     21006       924  TIP3      OH2           -32.1948655860       -3.2183496671       34.3134647878  TIP3      764             0.0000000000
     21007       924  TIP3      H1            -32.3138520255       -3.2706012304       35.2729001517  TIP3      764             0.0000000000
     21008       924  TIP3      H2            -32.7921059907       -3.9377903715       34.0184313239  TIP3      764             0.0000000000
     21009       925  TIP3      OH2           -29.3377162554      -15.4029269580       30.7621939085  TIP3      765             0.0000000000
     21010       925  TIP3      H1            -29.8957247303      -14.9796529967       30.0756007318  TIP3      765             0.0000000000
     21011       925  TIP3      H2            -29.3830814933      -14.7093853383       31.4533243335  TIP3      765             0.0000000000
     21012       926  TIP3      OH2           -24.2481089659      -15.3998201312       33.7909924204  TIP3      766             0.0000000000
     21013       926  TIP3      H1            -24.0270788263      -16.1371645850       34.4005619814  TIP3      766             0.0000000000
     21014       926  TIP3      H2            -25.2279570783      -15.3692663616       33.8242739822  TIP3      766             0.0000000000
     21015       927  TIP3      OH2           -22.0765230644      -11.0570234987       34.8888447362  TIP3      767             0.0000000000
     21016       927  TIP3      H1            -22.7100832071      -11.4712223997       35.5341532951  TIP3      767             0.0000000000
     21017       927  TIP3      H2            -22.1432251801      -10.1305358434       35.1285877252  TIP3      767             0.0000000000
     21018       928  TIP3      OH2           -29.1783978776       -9.8882893594       32.1609479725  TIP3      768             0.0000000000
     21019       928  TIP3      H1            -30.0642086387      -10.0267020436       32.5783176630  TIP3      768             0.0000000000
     21020       928  TIP3      H2            -29.3315848237       -9.0799293161       31.6104066781  TIP3      768             0.0000000000
     21021       929  TIP3      OH2           -29.5481914680       -9.2408221960       26.2087745949  TIP3      769             0.0000000000
     21022       929  TIP3      H1            -30.1986956730       -9.6340242439       25.6106067560  TIP3      769             0.0000000000
     21023       929  TIP3      H2            -28.8214463625       -8.9735059433       25.6061614071  TIP3      769             0.0000000000
     21024       930  TIP3      OH2           -23.5922871063       -9.3953108566       25.6108372597  TIP3      770             0.0000000000
     21025       930  TIP3      H1            -24.3240464708       -8.7832148792       25.4045599871  TIP3      770             0.0000000000
     21026       930  TIP3      H2            -23.1408776037       -9.4444678613       24.7473820268  TIP3      770             0.0000000000
     21027       931  TIP3      OH2           -24.0775247848       -8.7661476871       36.0523430894  TIP3      771             0.0000000000
     21028       931  TIP3      H1            -24.8788767088       -8.9677459121       36.5995403766  TIP3      771             0.0000000000
     21029       931  TIP3      H2            -23.5235446010       -8.3507359449       36.7258784173  TIP3      771             0.0000000000
     21030       932  TIP3      OH2           -23.6074576287       -9.3698965510       28.6107118342  TIP3      772             0.0000000000
     21031       932  TIP3      H1            -23.4316390632       -8.7588414030       27.8754987861  TIP3      772             0.0000000000
     21032       932  TIP3      H2            -23.0880810378      -10.1149645316       28.2628679725  TIP3      772             0.0000000000
     21033       933  TIP3      OH2           -31.5898381153      -10.1756031129       33.2315803103  TIP3      773             0.0000000000
     21034       933  TIP3      H1            -31.6749767756       -9.8578689542       34.1489921893  TIP3      773             0.0000000000
     21035       933  TIP3      H2            -32.0611675549      -11.0374195437       33.2631449023  TIP3      773             0.0000000000
     21036       934  TIP3      OH2           -34.6860701789      -11.6700961415       28.3901564126  TIP3      774             0.0000000000
     21037       934  TIP3      H1            -34.1965097471      -12.0386093875       29.1462281064  TIP3      774             0.0000000000
     21038       934  TIP3      H2            -35.0014361667      -12.4699344042       27.9111700801  TIP3      774             0.0000000000
     21039       935  TIP3      OH2           -33.6604149484      -12.0512784498       22.8638628233  TIP3      775             0.0000000000
     21040       935  TIP3      H1            -32.7007425707      -12.0055513918       22.7523523633  TIP3      775             0.0000000000
     21041       935  TIP3      H2            -33.9135812781      -11.5369693614       22.0652819539  TIP3      775             0.0000000000
     21042       936  TIP3      OH2           -23.4129458375       -8.3350207345       32.7489094271  TIP3      776             0.0000000000
     21043       936  TIP3      H1            -22.9258934884       -9.0637510492       32.2950354993  TIP3      776             0.0000000000
     21044       936  TIP3      H2            -23.4475204334       -8.6161892518       33.6732472262  TIP3      776             0.0000000000
     21045       937  TIP3      OH2           -26.5816420173      -12.6870971538       27.5462836083  TIP3      777             0.0000000000
     21046       937  TIP3      H1            -27.2477992767      -12.0595663394       27.8855026503  TIP3      777             0.0000000000
     21047       937  TIP3      H2            -26.2403138511      -13.1191129844       28.3525197088  TIP3      777             0.0000000000
     21048       938  TIP3      OH2           -32.2221626868      -10.6157765403       26.3474693042  TIP3      778             0.0000000000
     21049       938  TIP3      H1            -33.1185124887      -10.5829241817       25.9695581076  TIP3      778             0.0000000000
     21050       938  TIP3      H2            -31.9146641949      -11.4808292321       26.0235626248  TIP3      778             0.0000000000
     21051       939  TIP3      OH2           -28.2266995427      -10.8980320924       23.8861365826  TIP3      779             0.0000000000
     21052       939  TIP3      H1            -27.4962312085      -10.5437976765       24.4388013886  TIP3      779             0.0000000000
     21053       939  TIP3      H2            -28.3493140372      -10.0912315494       23.3739603660  TIP3      779             0.0000000000
     21054       940  TIP3      OH2           -22.4788187624      -12.8696431363       30.7107485149  TIP3      780             0.0000000000
     21055       940  TIP3      H1            -23.1505101536      -13.1576781444       31.3549046512  TIP3      780             0.0000000000
     21056       940  TIP3      H2            -22.6869585670      -13.4471995775       29.9525446983  TIP3      780             0.0000000000
     21057       941  TIP3      OH2           -19.3108124732        2.4671971533       37.5632615510  TIP3      781             0.0000000000
     21058       941  TIP3      H1            -18.9766852059        2.8334024259       36.7097239713  TIP3      781             0.0000000000
     21059       941  TIP3      H2            -18.6704914936        2.8198863698       38.2052391370  TIP3      781             0.0000000000
     21060       942  TIP3      OH2           -31.8393276147       -5.6636404061       38.0482415558  TIP3      782             0.0000000000
     21061       942  TIP3      H1            -30.9373171649       -5.3361264016       38.1954219820  TIP3      782             0.0000000000
     21062       942  TIP3      H2            -32.2427448437       -4.9432435021       37.5380120446  TIP3      782             0.0000000000
     21063       943  TIP3      OH2           -26.1839103719       -9.3809484321       29.3858325426  TIP3      783             0.0000000000
     21064       943  TIP3      H1            -25.2716316364       -9.5185452314       29.0455311329  TIP3      783             0.0000000000
     21065       943  TIP3      H2            -26.4815899810      -10.2887270004       29.5684715598  TIP3      783             0.0000000000
     21066       944  TIP3      OH2           -31.1692750199      -13.3149963515       25.6731175073  TIP3      784             0.0000000000
     21067       944  TIP3      H1            -31.4309679067      -13.8033513711       26.4864346104  TIP3      784             0.0000000000
     21068       944  TIP3      H2            -30.3153167343      -13.0254007201       26.0145785394  TIP3      784             0.0000000000
     21069       945  TIP3      OH2           -27.1276654491      -11.4199504894       31.2424338861  TIP3      785             0.0000000000
     21070       945  TIP3      H1            -28.0125925577      -10.9932788509       31.2622169091  TIP3      785             0.0000000000
     21071       945  TIP3      H2            -27.2013469502      -12.0861674018       31.9625255705  TIP3      785             0.0000000000
     21072       946  TIP3      OH2           -26.3528504165       -5.0581108190       23.6434995685  TIP3      786             0.0000000000
     21073       946  TIP3      H1            -27.0047563495       -5.6866144171       23.2508462590  TIP3      786             0.0000000000
     21074       946  TIP3      H2            -26.8197187988       -4.7228255309       24.4263327297  TIP3      786             0.0000000000
     21075       947  TIP3      OH2           -19.2771509655       -5.4139923583       32.5055957855  TIP3      787             0.0000000000
     21076       947  TIP3      H1            -18.6570290887       -4.8908239684       31.9369539691  TIP3      787             0.0000000000
     21077       947  TIP3      H2            -20.0431711164       -5.5807538349       31.9236313990  TIP3      787             0.0000000000
     21078       948  TIP3      OH2           -22.9710612372      -11.9908770611       21.8334959522  TIP3      788             0.0000000000
     21079       948  TIP3      H1            -23.9272544417      -12.0000448493       21.9928012199  TIP3      788             0.0000000000
     21080       948  TIP3      H2            -22.6562230572      -11.2760058616       22.4082150572  TIP3      788             0.0000000000
     21081       949  TIP3      OH2           -25.5420373998       -4.7434856138       34.5806899720  TIP3      789             0.0000000000
     21082       949  TIP3      H1            -25.6330598172       -5.3763900169       35.3146926116  TIP3      789             0.0000000000
     21083       949  TIP3      H2            -25.9545669215       -3.9572185815       34.9578552682  TIP3      789             0.0000000000
     21084       950  TIP3      OH2           -21.9666611527       -9.8129096047       23.4582724033  TIP3      790             0.0000000000
     21085       950  TIP3      H1            -21.4509244343      -10.1920880635       24.2072515015  TIP3      790             0.0000000000
     21086       950  TIP3      H2            -21.2546816273       -9.6083990978       22.8359599982  TIP3      790             0.0000000000
     21087       951  TIP3      OH2           -30.9181462522       -5.9520932094       28.9380965932  TIP3      791             0.0000000000
     21088       951  TIP3      H1            -30.3127046902       -5.9219532865       28.1623667948  TIP3      791             0.0000000000
     21089       951  TIP3      H2            -30.5685097310       -6.7090111911       29.4235106058  TIP3      791             0.0000000000
     21090       952  TIP3      OH2           -24.4635316866       -3.2309562016       23.3731689418  TIP3      792             0.0000000000
     21091       952  TIP3      H1            -24.9631038277       -2.3989519122       23.3213237938  TIP3      792             0.0000000000
     21092       952  TIP3      H2            -25.1609639190       -3.9010593161       23.1979282082  TIP3      792             0.0000000000
     21093       953  TIP3      OH2           -34.2538290334       -7.3888450987       34.6206497109  TIP3      793             0.0000000000
     21094       953  TIP3      H1            -34.2086987229       -7.6132676194       35.5697180310  TIP3      793             0.0000000000
     21095       953  TIP3      H2            -35.0234153049       -7.8944143972       34.3312615869  TIP3      793             0.0000000000
     21096       954  TIP3      OH2           -27.1996312754       -7.2189697659       36.2038208262  TIP3      794             0.0000000000
     21097       954  TIP3      H1            -27.4966802882       -7.8638980620       35.5331867265  TIP3      794             0.0000000000
     21098       954  TIP3      H2            -27.1182779430       -7.8331326118       36.9537635465  TIP3      794             0.0000000000
     21099       955  TIP3      OH2           -22.4860016921       -2.2905491556       35.0680055533  TIP3      795             0.0000000000
     21100       955  TIP3      H1            -23.2433497523       -2.0249746188       34.5303546381  TIP3      795             0.0000000000
     21101       955  TIP3      H2            -22.5659820772       -1.6902499952       35.8324185009  TIP3      795             0.0000000000
     21102       956  TIP3      OH2           -17.1586267898      -10.4341746818       22.7559601664  TIP3      796             0.0000000000
     21103       956  TIP3      H1            -16.5486739491      -11.1248509419       22.4528164092  TIP3      796             0.0000000000
     21104       956  TIP3      H2            -16.9335829454      -10.3515536988       23.6977841946  TIP3      796             0.0000000000
     21105       957  TIP3      OH2           -16.8521403072       -4.1572024089       35.9547796219  TIP3      797             0.0000000000
     21106       957  TIP3      H1            -17.8108510113       -4.0567796500       35.7685269851  TIP3      797             0.0000000000
     21107       957  TIP3      H2            -16.4796579148       -4.3214941712       35.0594383796  TIP3      797             0.0000000000
     21108       958  TIP3      OH2           -18.6645873204       -1.6700454508       23.1451933895  TIP3      798             0.0000000000
     21109       958  TIP3      H1            -19.3475685683       -2.0921865622       23.6856504992  TIP3      798             0.0000000000
     21110       958  TIP3      H2            -19.1460413005       -1.4700739246       22.3079234879  TIP3      798             0.0000000000
     21111       959  TIP3      OH2           -21.5522215867       -6.3862529009       31.1328470412  TIP3      799             0.0000000000
     21112       959  TIP3      H1            -22.2826529547       -6.3140545230       30.5054300258  TIP3      799             0.0000000000
     21113       959  TIP3      H2            -20.8543516824       -6.6122209107       30.4772167386  TIP3      799             0.0000000000
     21114       960  TIP3      OH2           -29.4700620040       -2.4694499670       26.5935527564  TIP3      800             0.0000000000
     21115       960  TIP3      H1            -29.8871490684       -1.6853697027       26.1967485158  TIP3      800             0.0000000000
     21116       960  TIP3      H2            -29.9237249285       -2.5566875794       27.4441782626  TIP3      800             0.0000000000
     21117       961  TIP3      OH2           -32.4040694337       -7.6508783964       22.1375608388  TIP3      801             0.0000000000
     21118       961  TIP3      H1            -32.0227964488       -7.8614269919       21.2490842408  TIP3      801             0.0000000000
     21119       961  TIP3      H2            -33.0422012025       -6.9839625695       21.8398423216  TIP3      801             0.0000000000
     21120       962  TIP3      OH2           -27.1546103007       -3.8592818058       26.2868164548  TIP3      802             0.0000000000
     21121       962  TIP3      H1            -27.9866677886       -3.3469631737       26.1762057879  TIP3      802             0.0000000000
     21122       962  TIP3      H2            -27.5228062022       -4.7035677208       26.6037766079  TIP3      802             0.0000000000
     21123       963  TIP3      OH2           -26.9160475149       -0.5137792063       32.6416044955  TIP3      803             0.0000000000
     21124       963  TIP3      H1            -26.3417181061        0.2556378355       32.5281167155  TIP3      803             0.0000000000
     21125       963  TIP3      H2            -26.6382065222       -0.8311175018       33.5258151801  TIP3      803             0.0000000000
     21126       964  TIP3      OH2           -28.8950807242        0.0500933233       25.4702925375  TIP3      804             0.0000000000
     21127       964  TIP3      H1            -29.5298541430        0.6395898086       25.9090324991  TIP3      804             0.0000000000
     21128       964  TIP3      H2            -28.1488260888        0.6688523183       25.3685969505  TIP3      804             0.0000000000
     21129       965  TIP3      OH2           -23.8928685446       -4.0371501457       32.3811370726  TIP3      805             0.0000000000
     21130       965  TIP3      H1            -24.3627391152       -4.2307616461       33.2239507368  TIP3      805             0.0000000000
     21131       965  TIP3      H2            -23.6061741881       -4.9310916604       32.1265164889  TIP3      805             0.0000000000
     21132       966  TIP3      OH2           -20.5447285339        0.4258003396       34.7591258557  TIP3      806             0.0000000000
     21133       966  TIP3      H1            -21.3830825200        0.0109855075       34.4729416870  TIP3      806             0.0000000000
     21134       966  TIP3      H2            -20.3943098906        1.0516075184       34.0116654948  TIP3      806             0.0000000000
     21135       967  TIP3      OH2           -16.4978071100        1.2375915551       21.8093351493  TIP3      807             0.0000000000
     21136       967  TIP3      H1            -15.9418582540        1.9272242956       21.4289954614  TIP3      807             0.0000000000
     21137       967  TIP3      H2            -17.1541563501        1.7883299928       22.2886927041  TIP3      807             0.0000000000
     21138       968  TIP3      OH2           -32.5667563043      -12.8148080891       33.9148922844  TIP3      808             0.0000000000
     21139       968  TIP3      H1            -33.1482775821      -12.3055699792       34.5165626886  TIP3      808             0.0000000000
     21140       968  TIP3      H2            -32.2178502207      -13.4487885388       34.5676796477  TIP3      808             0.0000000000
     21141       969  TIP3      OH2           -20.3818791222       -4.8581684506       23.3560704831  TIP3      809             0.0000000000
     21142       969  TIP3      H1            -20.8043606178       -5.5070452274       23.9400276653  TIP3      809             0.0000000000
     21143       969  TIP3      H2            -19.4410859132       -4.9705043322       23.5666326414  TIP3      809             0.0000000000
     21144       970  TIP3      OH2           -33.7471253379       -1.9201080820       32.3809594682  TIP3      810             0.0000000000
     21145       970  TIP3      H1            -33.0159343886       -2.3628053346       32.8667808610  TIP3      810             0.0000000000
     21146       970  TIP3      H2            -33.6515039506       -0.9928869643       32.7102348898  TIP3      810             0.0000000000
     21147       971  TIP3      OH2           -31.6256107348       -4.8513453065       23.0900038663  TIP3      811             0.0000000000
     21148       971  TIP3      H1            -32.6004394421       -4.9059856428       23.1980874792  TIP3      811             0.0000000000
     21149       971  TIP3      H2            -31.5991924960       -3.9773366759       22.6851042421  TIP3      811             0.0000000000
     21150       972  TIP3      OH2           -23.7096158308      -12.8162647767       33.3703573985  TIP3      812             0.0000000000
     21151       972  TIP3      H1            -23.1004398155      -12.5064475767       34.0625403406  TIP3      812             0.0000000000
     21152       972  TIP3      H2            -23.8123535674      -13.7677669296       33.6161210703  TIP3      812             0.0000000000
     21153       973  TIP3      OH2           -22.8607727975      -13.4086494997       24.7848712695  TIP3      813             0.0000000000
     21154       973  TIP3      H1            -23.0717721539      -12.4571043783       24.7171114403  TIP3      813             0.0000000000
     21155       973  TIP3      H2            -22.4239206065      -13.4010528576       25.6528720579  TIP3      813             0.0000000000
     21156       974  TIP3      OH2           -25.8543872962       -0.6263533493       23.4626913454  TIP3      814             0.0000000000
     21157       974  TIP3      H1            -26.4380433644       -0.2110286971       24.1309401784  TIP3      814             0.0000000000
     21158       974  TIP3      H2            -25.0528131814       -0.1004467657       23.5963984365  TIP3      814             0.0000000000
     21159       975  TIP3      OH2           -25.4264679506      -11.5894973115       25.3253989042  TIP3      815             0.0000000000
     21160       975  TIP3      H1            -25.1333831120      -10.6562899818       25.3976934840  TIP3      815             0.0000000000
     21161       975  TIP3      H2            -25.7333906999      -11.7891618498       26.2342526581  TIP3      815             0.0000000000
     21162       976  TIP3      OH2           -25.0389513219      -10.5781008356       34.2045974740  TIP3      816             0.0000000000
     21163       976  TIP3      H1            -24.3941243483      -10.1998473698       34.8298701204  TIP3      816             0.0000000000
     21164       976  TIP3      H2            -24.6173660965      -11.4000187456       33.8761581154  TIP3      816             0.0000000000
     21165       977  TIP3      OH2           -25.2178470358      -14.4242951190       25.8646499464  TIP3      817             0.0000000000
     21166       977  TIP3      H1            -25.6171984887      -13.8837447072       26.5774220738  TIP3      817             0.0000000000
     21167       977  TIP3      H2            -24.5253482379      -13.8223659418       25.5213115354  TIP3      817             0.0000000000
     21168       978  TIP3      OH2           -29.3948068811      -13.7348874560       22.8511602944  TIP3      818             0.0000000000
     21169       978  TIP3      H1            -29.5649732924      -13.0090629927       23.4696753281  TIP3      818             0.0000000000
     21170       978  TIP3      H2            -28.6113351678      -13.3964464969       22.3945127966  TIP3      818             0.0000000000
     21171       979  TIP3      OH2           -19.4280751862      -12.1400153686       35.6335387638  TIP3      819             0.0000000000
     21172       979  TIP3      H1            -20.3495487941      -11.9699439962       35.3701512779  TIP3      819             0.0000000000
     21173       979  TIP3      H2            -19.0450451209      -12.4471086680       34.7892582392  TIP3      819             0.0000000000
     21174       980  TIP3      OH2           -20.7781536716       -9.7814194987       28.5227368456  TIP3      820             0.0000000000
     21175       980  TIP3      H1            -20.6245131688       -8.8144272902       28.6176251713  TIP3      820             0.0000000000
     21176       980  TIP3      H2            -20.4060878267      -10.0729127320       29.3891874278  TIP3      820             0.0000000000
     21177       981  TIP3      OH2           -32.8720522900      -10.2928136054       20.8844381655  TIP3      821             0.0000000000
     21178       981  TIP3      H1            -32.7117369911       -9.6443946512       21.5912258104  TIP3      821             0.0000000000
     21179       981  TIP3      H2            -32.8388655660       -9.6750442243       20.1086777261  TIP3      821             0.0000000000
     21180       982  TIP3      OH2           -19.4601214391        0.4608759375       30.6738378523  TIP3      822             0.0000000000
     21181       982  TIP3      H1            -19.2913017962        1.1038828284       29.9505707176  TIP3      822             0.0000000000
     21182       982  TIP3      H2            -18.6128361848        0.5496035634       31.1519140492  TIP3      822             0.0000000000
     21183       983  TIP3      OH2           -32.3938695195      -15.3408475918       30.2956562576  TIP3      823             0.0000000000
     21184       983  TIP3      H1            -32.0725196174      -15.2780900705       29.3656758597  TIP3      823             0.0000000000
     21185       983  TIP3      H2            -32.4752067332      -16.3122283852       30.3639377210  TIP3      823             0.0000000000
     21186       984  TIP3      OH2           -32.9782928569       -1.4451444760       25.5562770279  TIP3      824             0.0000000000
     21187       984  TIP3      H1            -33.8653114713       -1.2188598297       25.2524476025  TIP3      824             0.0000000000
     21188       984  TIP3      H2            -32.4650429073       -1.2333012392       24.7673445069  TIP3      824             0.0000000000
     21189       985  TIP3      OH2           -33.5624284922        1.7124133620       37.2638678449  TIP3      825             0.0000000000
     21190       985  TIP3      H1            -32.8491770080        1.5833825933       37.9222051695  TIP3      825             0.0000000000
     21191       985  TIP3      H2            -33.7747927665        0.7855938399       37.0809955305  TIP3      825             0.0000000000
     21192       986  TIP3      OH2           -29.3484481863        0.5805111442       37.8164575576  TIP3      826             0.0000000000
     21193       986  TIP3      H1            -29.5385439395        1.2184030862       37.1135440648  TIP3      826             0.0000000000
     21194       986  TIP3      H2            -29.7218867555       -0.2164805367       37.3780761944  TIP3      826             0.0000000000
     21195       987  TIP3      OH2           -22.8939828940       -0.9102486801       37.4074264813  TIP3      827             0.0000000000
     21196       987  TIP3      H1            -22.9996176076       -1.7874458998       37.8507748400  TIP3      827             0.0000000000
     21197       987  TIP3      H2            -21.9666507240       -0.7117722733       37.6608392079  TIP3      827             0.0000000000
     21198       988  TIP3      OH2           -34.8498910190       -5.9628631010       38.1430525857  TIP3      828             0.0000000000
     21199       988  TIP3      H1            -34.0565125785       -6.5131520200       38.0012880879  TIP3      828             0.0000000000
     21200       988  TIP3      H2            -34.4947781685       -5.0644651030       37.9685139200  TIP3      828             0.0000000000
     21201       989  TIP3      OH2           -27.6056148407       -4.5928040268       37.0697204599  TIP3      829             0.0000000000
     21202       989  TIP3      H1            -27.9064629495       -4.2828252913       36.1858349813  TIP3      829             0.0000000000
     21203       989  TIP3      H2            -27.4539307838       -5.5460608073       36.8806652903  TIP3      829             0.0000000000
     21204       990  TIP3      OH2           -21.9153965032       -5.0153018319       35.1695100023  TIP3      830             0.0000000000
     21205       990  TIP3      H1            -21.1205549915       -4.4419338991       35.1896039583  TIP3      830             0.0000000000
     21206       990  TIP3      H2            -22.5674869892       -4.3169720841       34.9552181995  TIP3      830             0.0000000000
     21207       991  TIP3      OH2           -33.3957983129       -8.1657936831       37.6197670092  TIP3      831             0.0000000000
     21208       991  TIP3      H1            -32.8148957702       -8.0381932505       36.8437906488  TIP3      831             0.0000000000
     21209       991  TIP3      H2            -32.7809824377       -7.9047985874       38.3316617142  TIP3      831             0.0000000000
     21210       992  TIP3      OH2           -28.2993912154       -6.6985767075       22.5774034581  TIP3      832             0.0000000000
     21211       992  TIP3      H1            -29.1069549439       -6.6569312560       23.1259639995  TIP3      832             0.0000000000
     21212       992  TIP3      H2            -27.9270070760       -7.5653211172       22.8041028348  TIP3      832             0.0000000000
     21213       993  TIP3      OH2           -28.6634196990       -8.9363290371       34.8376808160  TIP3      833             0.0000000000
     21214       993  TIP3      H1            -29.1617048995       -8.3902448631       35.4673216853  TIP3      833             0.0000000000
     21215       993  TIP3      H2            -28.7555190806       -8.3867143339       34.0440704160  TIP3      833             0.0000000000
     21216       994  TIP3      OH2           -23.6857794419       -5.9592862407       38.2524823308  TIP3      834             0.0000000000
     21217       994  TIP3      H1            -22.8302536152       -6.0363051866       38.7031709698  TIP3      834             0.0000000000
     21218       994  TIP3      H2            -24.3578742858       -5.8231622658       38.9782385988  TIP3      834             0.0000000000
     21219       995  TIP3      OH2           -28.5941866909      -11.4983988780       35.4898494683  TIP3      835             0.0000000000
     21220       995  TIP3      H1            -28.2933555826      -11.9844656798       34.7035606213  TIP3      835             0.0000000000
     21221       995  TIP3      H2            -28.6960606117      -10.6065881270       35.0984971638  TIP3      835             0.0000000000
     21222       996  TIP3      OH2           -27.6607714455      -13.0871778341       33.4359853458  TIP3      836             0.0000000000
     21223       996  TIP3      H1            -28.5880512314      -13.1599567537       33.0887210931  TIP3      836             0.0000000000
     21224       996  TIP3      H2            -27.7821658567      -13.6180115727       34.2647656441  TIP3      836             0.0000000000
     21225       997  TIP3      OH2           -27.0633572545       -7.0474535554       33.4115067400  TIP3      837             0.0000000000
     21226       997  TIP3      H1            -26.9107195149       -6.5459139141       34.2350400747  TIP3      837             0.0000000000
     21227       997  TIP3      H2            -27.7887770016       -6.5224401279       33.0149978295  TIP3      837             0.0000000000
     21228       998  TIP3      OH2           -22.3463308036      -10.1730328622       38.3316396792  TIP3      838             0.0000000000
     21229       998  TIP3      H1            -21.9786789295      -11.0257461338       38.6049751916  TIP3      838             0.0000000000
     21230       998  TIP3      H2            -21.6934334416       -9.8732337075       37.6851685248  TIP3      838             0.0000000000
     21231       999  TIP3      OH2           -20.9119518154       -6.5230654737       37.1298431027  TIP3      839             0.0000000000
     21232       999  TIP3      H1            -21.4481186628       -6.0448689083       36.4540040589  TIP3      839             0.0000000000
     21233       999  TIP3      H2            -20.0341899813       -6.6012242550       36.7086246452  TIP3      839             0.0000000000
     21234      1000  TIP3      OH2           -29.7338376657       -9.8271205057       37.9043047301  TIP3      840             0.0000000000
     21235      1000  TIP3      H1            -30.0571648735      -10.2788609262       37.1004345922  TIP3      840             0.0000000000
     21236      1000  TIP3      H2            -28.7836451491       -9.6954635569       37.7017509371  TIP3      840             0.0000000000
     21237      1001  TIP3      OH2           -27.0674028633      -15.8154775006       33.1127584072  TIP3      841             0.0000000000
     21238      1001  TIP3      H1            -27.3921455642      -14.9239085394       33.3115232613  TIP3      841             0.0000000000
     21239      1001  TIP3      H2            -27.9253872261      -16.2984831697       33.1559290054  TIP3      841             0.0000000000
     21240      1002  TIP3      OH2           -26.8879887944      -12.6365424978       37.2533133202  TIP3      842             0.0000000000
     21241      1002  TIP3      H1            -26.6014136770      -11.7012324441       37.3714181124  TIP3      842             0.0000000000
     21242      1002  TIP3      H2            -27.6304720563      -12.4723050891       36.6309840560  TIP3      842             0.0000000000
     21243      1003  TIP3      OH2           -23.9083701366      -12.2234848978       36.4495048599  TIP3      843             0.0000000000
     21244      1003  TIP3      H1            -24.8766548559      -12.1581206528       36.3596592952  TIP3      843             0.0000000000
     21245      1003  TIP3      H2            -23.7896533348      -12.1898675294       37.4028456187  TIP3      843             0.0000000000
     21246      1004  TIP3      OH2           -21.3457733330      -12.9262777133       38.2818541767  TIP3      844             0.0000000000
     21247      1004  TIP3      H1            -21.5830081430      -13.7427504782       37.8008802286  TIP3      844             0.0000000000
     21248      1004  TIP3      H2            -21.7046970752      -13.0574925716       39.1854048944  TIP3      844             0.0000000000
     21249      1005  TIP3      OH2           -31.7786876648      -12.2849615279       37.3787008131  TIP3      845             0.0000000000
     21250      1005  TIP3      H1            -31.3472137609      -13.0862829090       37.0452541108  TIP3      845             0.0000000000
     21251      1005  TIP3      H2            -31.8311210931      -12.4293454154       38.3384101543  TIP3      845             0.0000000000
     21252      1006  TIP3      OH2           -27.6086938685      -16.5885513729       37.0532944217  TIP3      846             0.0000000000
     21253      1006  TIP3      H1            -26.9329476139      -17.0125742376       36.4993311926  TIP3      846             0.0000000000
     21254      1006  TIP3      H2            -28.1825481385      -16.1583939599       36.3717221284  TIP3      846             0.0000000000
     21255      1007  TIP3      OH2           -27.0767359261      -14.8043715045       39.0187901497  TIP3      847             0.0000000000
     21256      1007  TIP3      H1            -27.3326643212      -15.3806169008       38.2590725792  TIP3      847             0.0000000000
     21257      1007  TIP3      H2            -27.1811964759      -13.9365448689       38.5798162570  TIP3      847             0.0000000000
     21258      1008  TIP3      OH2           -27.7519494258        1.4793101489       21.5439826392  TIP3      848             0.0000000000
     21259      1008  TIP3      H1            -26.8652450177        1.7777282673       21.8028254607  TIP3      848             0.0000000000
     21260      1008  TIP3      H2            -28.3461141908        2.1191025520       21.9492163969  TIP3      848             0.0000000000
     21261      1009  TIP3      OH2           -32.8714852482       -2.5705618428       21.6395418884  TIP3      849             0.0000000000
     21262      1009  TIP3      H1            -33.0396133670       -3.5059547660       21.3614095997  TIP3      849             0.0000000000
     21263      1009  TIP3      H2            -33.7672695729       -2.2868609128       21.8824657442  TIP3      849             0.0000000000
     21264      1010  TIP3      OH2           -34.5552478848        2.3932020140       25.7080084661  TIP3      850             0.0000000000
     21265      1010  TIP3      H1            -34.9297052120        3.2012515623       25.3253635967  TIP3      850             0.0000000000
     21266      1010  TIP3      H2            -34.9555998676        2.3345071681       26.5884599872  TIP3      850             0.0000000000
     21267      1011  TIP3      OH2           -34.2330587184        0.5281630904       28.1629101592  TIP3      851             0.0000000000
     21268      1011  TIP3      H1            -33.8798707144       -0.3733539223       28.3162280331  TIP3      851             0.0000000000
     21269      1011  TIP3      H2            -33.6856558494        0.9938545930       28.8263458820  TIP3      851             0.0000000000
     21270      1012  TIP3      OH2           -17.2403687989        1.8062261706       31.6932756824  TIP3      852             0.0000000000
     21271      1012  TIP3      H1            -16.5160612769        1.1313240592       31.6771746270  TIP3      852             0.0000000000
     21272      1012  TIP3      H2            -17.0114977064        2.4024188840       30.9632428328  TIP3      852             0.0000000000
     21273      1013  TIP3      OH2           -17.1175777728        0.7692430783       34.4620289603  TIP3      853             0.0000000000
     21274      1013  TIP3      H1            -17.0451225034        0.4878510026       33.5298757228  TIP3      853             0.0000000000
     21275      1013  TIP3      H2            -16.7968309223       -0.0301921107       34.9241091404  TIP3      853             0.0000000000
     21276      1014  TIP3      OH2           -18.4233755956       -3.5556660043       38.7834211857  TIP3      854             0.0000000000
     21277      1014  TIP3      H1            -19.1576199671       -3.4978746087       39.4425465185  TIP3      854             0.0000000000
     21278      1014  TIP3      H2            -18.0081305629       -2.6661853012       38.8914930669  TIP3      854             0.0000000000
     21279      1015  TIP3      OH2           -17.6267812247       -5.6632374311       23.6454142406  TIP3      855             0.0000000000
     21280      1015  TIP3      H1            -16.8726574311       -5.0375165358       23.6731314791  TIP3      855             0.0000000000
     21281      1015  TIP3      H2            -17.4867345874       -6.1268459276       24.5063795671  TIP3      855             0.0000000000
     21282      1016  TIP3      OH2           -17.3399385430       -6.9194864981       25.9543406685  TIP3      856             0.0000000000
     21283      1016  TIP3      H1            -17.8353810080       -7.6776390584       26.3193894350  TIP3      856             0.0000000000
     21284      1016  TIP3      H2            -16.6103099191       -6.8536231280       26.5969644461  TIP3      856             0.0000000000
     21285      1017  TIP3      OH2           -17.1563522842       -4.4527409738       31.2492341409  TIP3      857             0.0000000000
     21286      1017  TIP3      H1            -16.6948105755       -4.9232875498       30.5301396860  TIP3      857             0.0000000000
     21287      1017  TIP3      H2            -17.1241281750       -3.5370340486       30.8938967619  TIP3      857             0.0000000000
     21288      1018  TIP3      OH2           -18.5845273890       -1.5044773489       33.2737145686  TIP3      858             0.0000000000
     21289      1018  TIP3      H1            -19.1422902998       -0.8042329194       33.6565555842  TIP3      858             0.0000000000
     21290      1018  TIP3      H2            -19.0441515147       -1.7078757659       32.4269478026  TIP3      858             0.0000000000
     21291      1019  TIP3      OH2           -19.0033948741       -9.1624868941       26.4619483034  TIP3      859             0.0000000000
     21292      1019  TIP3      H1            -18.8718946675       -9.6717618469       27.2786508797  TIP3      859             0.0000000000
     21293      1019  TIP3      H2            -19.6597992223       -8.5200839319       26.7819360340  TIP3      859             0.0000000000
     21294      1020  TIP3      OH2           -34.2382908044       -6.7888632320       30.5106955695  TIP3      860             0.0000000000
     21295      1020  TIP3      H1            -34.2494350937       -7.0027281177       29.5485729483  TIP3      860             0.0000000000
     21296      1020  TIP3      H2            -33.3230056970       -7.0137799130       30.7760491367  TIP3      860             0.0000000000
     21297      1021  TIP3      OH2           -18.0244694198       -6.6385541852       36.4019058290  TIP3      861             0.0000000000
     21298      1021  TIP3      H1            -17.9072823761       -7.0110267374       35.5090146632  TIP3      861             0.0000000000
     21299      1021  TIP3      H2            -17.5869823428       -5.7690086495       36.3082076343  TIP3      861             0.0000000000
     21300      1022  TIP3      OH2           -16.9913075583       -9.5444428594       36.2075636021  TIP3      862             0.0000000000
     21301      1022  TIP3      H1            -17.9556332030       -9.3813328604       36.2666991158  TIP3      862             0.0000000000
     21302      1022  TIP3      H2            -16.8643754337      -10.3075078687       36.8147015818  TIP3      862             0.0000000000
     21303      1023  TIP3      OH2           -19.9200437615      -11.1033392378       24.6972578041  TIP3      863             0.0000000000
     21304      1023  TIP3      H1            -19.2433777918      -11.7562297692       24.4255577923  TIP3      863             0.0000000000
     21305      1023  TIP3      H2            -19.4209966433      -10.5427108371       25.3340500921  TIP3      863             0.0000000000
     21306      1024  TIP3      OH2           -19.3014537889      -10.1243203619       30.5895204399  TIP3      864             0.0000000000
     21307      1024  TIP3      H1            -18.3458734349      -10.2225580235       30.4515907696  TIP3      864             0.0000000000
     21308      1024  TIP3      H2            -19.2871394655      -10.0809408665       31.5525433620  TIP3      864             0.0000000000
     21309      1025  TIP3      OH2           -18.9401227548       -9.6084216228       33.3893104827  TIP3      865             0.0000000000
     21310      1025  TIP3      H1            -19.7664186535       -9.1214890188       33.5731005315  TIP3      865             0.0000000000
     21311      1025  TIP3      H2            -18.3669941570       -8.8703619394       33.0607129834  TIP3      865             0.0000000000
     21312      1026  TIP3      OH2           -33.8152897900      -11.1554413891       35.7236051849  TIP3      866             0.0000000000
     21313      1026  TIP3      H1            -33.0727052799      -10.5805559810       35.9954006708  TIP3      866             0.0000000000
     21314      1026  TIP3      H2            -34.5987231662      -10.6608470723       36.0589070084  TIP3      866             0.0000000000
     21315      1027  TIP3      OH2           -16.8777674643      -15.8167261007       38.4135599985  TIP3      867             0.0000000000
     21316      1027  TIP3      H1            -16.1989478284      -16.4368795409       38.0706249937  TIP3      867             0.0000000000
     21317      1027  TIP3      H2            -16.7654164640      -15.1127759961       37.7387954031  TIP3      867             0.0000000000
     21318      1028  TIP3      OH2           -18.1761117877      -13.3846911938       25.2667755921  TIP3      868             0.0000000000
     21319      1028  TIP3      H1            -18.1288247051      -13.8608605558       26.1250429791  TIP3      868             0.0000000000
     21320      1028  TIP3      H2            -19.0205652575      -13.7639318143       24.9615290827  TIP3      868             0.0000000000
     21321      1029  TIP3      OH2           -33.4020470217      -12.7296299574       30.5897379371  TIP3      869             0.0000000000
     21322      1029  TIP3      H1            -33.1279668838      -13.6664615704       30.6069721874  TIP3      869             0.0000000000
     21323      1029  TIP3      H2            -32.5320579769      -12.2852556870       30.5599021035  TIP3      869             0.0000000000
     21324      1030  TIP3      OH2           -34.6701793473       -9.8589299377       30.9620472390  TIP3      870             0.0000000000
     21325      1030  TIP3      H1            -34.2285801370      -10.3151718685       30.2233177735  TIP3      870             0.0000000000
     21326      1030  TIP3      H2            -34.3866484800       -8.9426107460       30.8263344832  TIP3      870             0.0000000000
     21327      1031  TIP3      OH2           -16.8770788227      -13.7515130067       36.5822981998  TIP3      871             0.0000000000
     21328      1031  TIP3      H1            -17.5016311866      -13.4406240517       37.2895220322  TIP3      871             0.0000000000
     21329      1031  TIP3      H2            -17.5734808198      -14.0589282552       35.9616844181  TIP3      871             0.0000000000
     21330      1032  TIP3      OH2           -17.2557118081      -13.0826542842       21.4610548122  TIP3      872             0.0000000000
     21331      1032  TIP3      H1            -17.6966703133      -13.9413319844       21.3091998960  TIP3      872             0.0000000000
     21332      1032  TIP3      H2            -17.5918475974      -12.5513536479       20.7135807114  TIP3      872             0.0000000000
     21333      1033  TIP3      OH2           -35.3189150279      -14.1476197438       23.4030412422  TIP3      873             0.0000000000
     21334      1033  TIP3      H1            -35.3893096015      -14.2359581272       24.3735189663  TIP3      873             0.0000000000
     21335      1033  TIP3      H2            -34.8820043906      -13.2671797807       23.3079606511  TIP3      873             0.0000000000
     21336      1034  TIP3      OH2           -20.2268063327        1.6058062141       26.4922730623  TIP3      874             0.0000000000
     21337      1034  TIP3      H1            -19.5246557561        1.3259852393       25.8621896245  TIP3      874             0.0000000000
     21338      1034  TIP3      H2            -19.7500686902        2.1895116001       27.1143256136  TIP3      874             0.0000000000
     21339      1035  TIP3      OH2            35.2609010065      -15.1604851325       33.0808612475  TIP3      875             0.0000000000
     21340      1035  TIP3      H1             34.9792006006      -15.0228961343       33.9925164379  TIP3      875             0.0000000000
     21341      1035  TIP3      H2             34.9931656336      -14.3306003417       32.6520647943  TIP3      875             0.0000000000
     21342      1036  TIP3      OH2           -32.2493753957       -0.7143217394       37.4249558573  TIP3      876             0.0000000000
     21343      1036  TIP3      H1            -33.0868803411       -0.9668439552       36.9959840425  TIP3      876             0.0000000000
     21344      1036  TIP3      H2            -32.1366983797       -1.5590066796       37.9048839816  TIP3      876             0.0000000000
     21345      1037  TIP3      OH2           -29.3863360586       -0.1468834448       34.1769997418  TIP3      877             0.0000000000
     21346      1037  TIP3      H1            -29.4731420135        0.6465938999       33.6040840889  TIP3      877             0.0000000000
     21347      1037  TIP3      H2            -29.0687515232       -0.7971950761       33.5180753372  TIP3      877             0.0000000000
     21348      1038  TIP3      OH2           -25.4078490489        1.0827381711       36.2347783334  TIP3      878             0.0000000000
     21349      1038  TIP3      H1            -25.2914579464        0.6115719418       37.0862002102  TIP3      878             0.0000000000
     21350      1038  TIP3      H2            -24.4868537462        1.3890777991       36.0576453805  TIP3      878             0.0000000000
     21351      1039  TIP3      OH2           -23.1439886863        2.4135987834       35.6902567951  TIP3      879             0.0000000000
     21352      1039  TIP3      H1            -22.3726236182        1.9279701446       35.3868480422  TIP3      879             0.0000000000
     21353      1039  TIP3      H2            -22.8497342062        2.7788302951       36.5404391681  TIP3      879             0.0000000000
     21354      1040  TIP3      OH2           -18.5427579937      -15.2788209917       34.9560029397  TIP3      880             0.0000000000
     21355      1040  TIP3      H1            -19.3430273311      -14.8816824108       34.5780121903  TIP3      880             0.0000000000
     21356      1040  TIP3      H2            -18.6743598306      -16.2150081346       34.7010977268  TIP3      880             0.0000000000
     21357      1041  TIP3      OH2           -31.9320208641        3.5462048752       34.0759108355  TIP3      881             0.0000000000
     21358      1041  TIP3      H1            -32.8079501180        3.7936552022       33.7296139773  TIP3      881             0.0000000000
     21359      1041  TIP3      H2            -32.0421129179        2.5704393902       34.0137117794  TIP3      881             0.0000000000
     21360      1042  TIP3      OH2           -29.8954201692        2.0493927930       32.3685078879  TIP3      882             0.0000000000
     21361      1042  TIP3      H1            -30.8306680052        1.9459516568       32.6515153568  TIP3      882             0.0000000000
     21362      1042  TIP3      H2            -29.9206517979        2.8501923072       31.8255793071  TIP3      882             0.0000000000
     21363      1043  TIP3      OH2           -25.2458378593        1.8917447396       31.6891312326  TIP3      883             0.0000000000
     21364      1043  TIP3      H1            -25.7726297608        2.4517975791       31.0857760625  TIP3      883             0.0000000000
     21365      1043  TIP3      H2            -25.0436385147        2.5595053595       32.3812799673  TIP3      883             0.0000000000
     21366      1044  TIP3      OH2           -22.9155178521        0.5527896833       33.1695373243  TIP3      884             0.0000000000
     21367      1044  TIP3      H1            -23.5272820553        0.9794927942       32.5422770869  TIP3      884             0.0000000000
     21368      1044  TIP3      H2            -22.1349901211        1.1097190760       32.9804193427  TIP3      884             0.0000000000
     21369      1045  TIP3      OH2           -20.6206443285        2.0891088916       32.7274660378  TIP3      885             0.0000000000
     21370      1045  TIP3      H1            -20.3780883982        3.0401354021       32.7387095938  TIP3      885             0.0000000000
     21371      1045  TIP3      H2            -20.2376110365        1.8068936728       31.8722322554  TIP3      885             0.0000000000
     21372      1046  TIP3      OH2           -32.4498285645        1.0023633836       30.2504549882  TIP3      886             0.0000000000
     21373      1046  TIP3      H1            -32.9538118413        1.0193300137       31.1042884948  TIP3      886             0.0000000000
     21374      1046  TIP3      H2            -31.6332220055        0.5626476345       30.5739828473  TIP3      886             0.0000000000
     21375      1047  TIP3      OH2           -29.8974275451       -0.0943352689       28.1951795645  TIP3      887             0.0000000000
     21376      1047  TIP3      H1            -30.1786610784       -0.8043398907       28.8204655085  TIP3      887             0.0000000000
     21377      1047  TIP3      H2            -29.3577127975        0.3944276533       28.8354218387  TIP3      887             0.0000000000
     21378      1048  TIP3      OH2           -27.5619044778        0.1934014988       29.6585077763  TIP3      888             0.0000000000
     21379      1048  TIP3      H1            -28.0407766406       -0.5955716421       30.0013723059  TIP3      888             0.0000000000
     21380      1048  TIP3      H2            -27.2729562498        0.5330558311       30.5193569178  TIP3      888             0.0000000000
     21381      1049  TIP3      OH2           -24.7534941110      -14.2276864349       29.0816851977  TIP3      889             0.0000000000
     21382      1049  TIP3      H1            -25.5334122700      -14.7445063760       29.3671720767  TIP3      889             0.0000000000
     21383      1049  TIP3      H2            -24.0266531792      -14.8595646415       29.1047652825  TIP3      889             0.0000000000
     21384      1050  TIP3      OH2           -19.7326422179      -15.4717684296       29.5024147399  TIP3      890             0.0000000000
     21385      1050  TIP3      H1            -19.0715122262      -15.3130041497       28.7821929512  TIP3      890             0.0000000000
     21386      1050  TIP3      H2            -20.5279880240      -15.5441196539       28.9386807530  TIP3      890             0.0000000000
     21387      1051  TIP3      OH2           -17.7377455149      -14.9066810607       27.6490439026  TIP3      891             0.0000000000
     21388      1051  TIP3      H1            -17.1211218682      -15.5528693316       27.2424234420  TIP3      891             0.0000000000
     21389      1051  TIP3      H2            -17.0866458387      -14.2498344668       27.9618382108  TIP3      891             0.0000000000
     21390      1052  TIP3      OH2           -32.6233881269      -15.4546600994       27.4625143122  TIP3      892             0.0000000000
     21391      1052  TIP3      H1            -33.2331124502      -14.8238340156       27.0464687326  TIP3      892             0.0000000000
     21392      1052  TIP3      H2            -32.3217698491      -16.0107830941       26.7329397147  TIP3      892             0.0000000000
     21393      1053  TIP3      OH2           -32.8969730064      -15.7481726291       22.5477705431  TIP3      893             0.0000000000
     21394      1053  TIP3      H1            -32.9836466533      -15.4358220529       21.6365032639  TIP3      893             0.0000000000
     21395      1053  TIP3      H2            -33.7133407148      -15.3368826223       22.8949773651  TIP3      893             0.0000000000
     21396      1054  TIP3      OH2           -27.9870101776      -15.8492787737       27.1882298323  TIP3      894             0.0000000000
     21397      1054  TIP3      H1            -28.0228616980      -14.8821376366       27.2846270890  TIP3      894             0.0000000000
     21398      1054  TIP3      H2            -27.8134328822      -16.0465792334       28.1294872398  TIP3      894             0.0000000000
     21399      1055  TIP3      OH2           -22.2616413896      -15.4684368828       28.1806648790  TIP3      895             0.0000000000
     21400      1055  TIP3      H1            -22.1688466421      -15.6185915218       27.2290413158  TIP3      895             0.0000000000
     21401      1055  TIP3      H2            -22.7418128695      -16.2829200293       28.4407394151  TIP3      895             0.0000000000
     21402      1056  TIP3      OH2           -20.5302567670      -14.9957626679       24.6874745077  TIP3      896             0.0000000000
     21403      1056  TIP3      H1            -21.1986402749      -14.3350725272       24.4390233112  TIP3      896             0.0000000000
     21404      1056  TIP3      H2            -21.0654120753      -15.7997001052       24.5723755628  TIP3      896             0.0000000000
     21405      1057  TIP3      OH2           -33.7984335115        0.6585096919       23.4840519319  TIP3      897             0.0000000000
     21406      1057  TIP3      H1            -34.6666044643        0.8086297480       23.0779349364  TIP3      897             0.0000000000
     21407      1057  TIP3      H2            -33.5578921391        1.5829954994       23.7106536996  TIP3      897             0.0000000000
     21408      1058  TIP3      OH2           -26.6549498766      -13.5501066608       23.4747333353  TIP3      898             0.0000000000
     21409      1058  TIP3      H1            -25.9739796140      -13.1614882970       24.0520608408  TIP3      898             0.0000000000
     21410      1058  TIP3      H2            -26.8553242142      -12.7384979873       22.9779082167  TIP3      898             0.0000000000
     21411      1059  TIP3      OH2           -24.6292708592        1.6388705397       21.5459155893  TIP3      899             0.0000000000
     21412      1059  TIP3      H1            -24.4511627828        1.9804547808       22.4447127121  TIP3      899             0.0000000000
     21413      1059  TIP3      H2            -24.1934255087        0.7792973064       21.5720938826  TIP3      899             0.0000000000
     21414      1060  TIP3      OH2           -18.3165124100        0.6375231248       24.7736247727  TIP3      900             0.0000000000
     21415      1060  TIP3      H1            -18.2483206218       -0.1469920231       24.1822822651  TIP3      900             0.0000000000
     21416      1060  TIP3      H2            -18.1222755052        1.3874733660       24.1664324017  TIP3      900             0.0000000000
     21417      1061  TIP3      OH2           -32.2504032183      -14.9300730528       35.9820792089  TIP3      901             0.0000000000
     21418      1061  TIP3      H1            -32.5262580061      -15.7247942801       36.4881923313  TIP3      901             0.0000000000
     21419      1061  TIP3      H2            -31.2793149019      -15.0561017724       35.8873715627  TIP3      901             0.0000000000
     21420      1062  TIP3      OH2           -30.1582339393      -15.1862672288       38.2742288869  TIP3      902             0.0000000000
     21421      1062  TIP3      H1            -29.8255351456      -14.8556043137       37.4118291060  TIP3      902             0.0000000000
     21422      1062  TIP3      H2            -29.6145885433      -15.9940619078       38.3175115138  TIP3      902             0.0000000000
     21423      1063  TIP3      OH2           -31.3765934791        1.4445271966       21.4988705900  TIP3      903             0.0000000000
     21424      1063  TIP3      H1            -31.2674647195        2.4022347045       21.3949371070  TIP3      903             0.0000000000
     21425      1063  TIP3      H2            -32.1233551893        1.4302752095       22.1284292405  TIP3      903             0.0000000000
     21426      1064  TIP3      OH2           -22.0598799043      -16.2487103042       38.1848794910  TIP3      904             0.0000000000
     21427      1064  TIP3      H1            -22.3959993792      -17.1569152818       38.0867586785  TIP3      904             0.0000000000
     21428      1064  TIP3      H2            -21.0920716126      -16.3851034341       38.0045763079  TIP3      904             0.0000000000
     21429      1065  TIP3      OH2           -18.9336218343       -0.0580027750       36.7636016427  TIP3      905             0.0000000000
     21430      1065  TIP3      H1            -19.4268242808        0.0295048407       35.9105528884  TIP3      905             0.0000000000
     21431      1065  TIP3      H2            -19.0645321880        0.8579670668       37.0925768703  TIP3      905             0.0000000000
     21432      1066  TIP3      OH2            -4.0060699170       -6.1117167366       26.8071626566  TIP3      906             0.0000000000
     21433      1066  TIP3      H1             -4.1962898870       -5.1778953534       27.0076551082  TIP3      906             0.0000000000
     21434      1066  TIP3      H2             -4.5865638983       -6.2451919707       26.0396952068  TIP3      906             0.0000000000
     21435      1067  TIP3      OH2            -5.6730287883       -7.4187890830       30.1673861703  TIP3      907             0.0000000000
     21436      1067  TIP3      H1             -5.4355147947       -7.8498324134       31.0144714450  TIP3      907             0.0000000000
     21437      1067  TIP3      H2             -6.5347709045       -7.7977361055       29.9303935901  TIP3      907             0.0000000000
     21438      1068  TIP3      OH2           -13.3862644309       -7.0698389411       32.0927276709  TIP3      908             0.0000000000
     21439      1068  TIP3      H1            -13.6475292774       -8.0136450105       31.9643459964  TIP3      908             0.0000000000
     21440      1068  TIP3      H2            -12.8543386185       -6.8778518838       31.3002217239  TIP3      908             0.0000000000
     21441      1069  TIP3      OH2            -2.1876490594       -4.2361263494       28.4110930984  TIP3      909             0.0000000000
     21442      1069  TIP3      H1             -2.5902038815       -4.9147701159       28.9820574192  TIP3      909             0.0000000000
     21443      1069  TIP3      H2             -1.8680266531       -3.6107691272       29.0887572220  TIP3      909             0.0000000000
     21444      1070  TIP3      OH2           -12.0359968283       -2.8448120708       29.9281360900  TIP3      910             0.0000000000
     21445      1070  TIP3      H1            -12.6268600863       -3.6136388498       29.8693441755  TIP3      910             0.0000000000
     21446      1070  TIP3      H2            -11.1789743320       -3.2429354575       30.1412606990  TIP3      910             0.0000000000
     21447      1071  TIP3      OH2           -15.6541508157       -9.7137329739       25.4999823128  TIP3      911             0.0000000000
     21448      1071  TIP3      H1            -15.4914658432       -8.7834892565       25.7281151719  TIP3      911             0.0000000000
     21449      1071  TIP3      H2            -16.0031576507      -10.0215566552       26.3776223292  TIP3      911             0.0000000000
     21450      1072  TIP3      OH2           -14.6943429679       -7.5600567009       27.1964661703  TIP3      912             0.0000000000
     21451      1072  TIP3      H1            -14.3842448618       -8.1484444651       27.9217562438  TIP3      912             0.0000000000
     21452      1072  TIP3      H2            -14.5894876429       -6.6873127741       27.6429504491  TIP3      912             0.0000000000
     21453      1073  TIP3      OH2            -4.6195917860        1.2438636662       28.5521159641  TIP3      913             0.0000000000
     21454      1073  TIP3      H1             -3.8810575045        0.7182290067       28.1593492433  TIP3      913             0.0000000000
     21455      1073  TIP3      H2             -5.0176961196        0.5739327780       29.1290375506  TIP3      913             0.0000000000
     21456      1074  TIP3      OH2            -7.2567737214       -4.6221459312       31.0449591203  TIP3      914             0.0000000000
     21457      1074  TIP3      H1             -6.9403558131       -5.1729319305       30.3143985452  TIP3      914             0.0000000000
     21458      1074  TIP3      H2             -6.4017300797       -4.4185597186       31.4883599549  TIP3      914             0.0000000000
     21459      1075  TIP3      OH2             2.5023895627      -12.5830985699       31.7187166635  TIP3      915             0.0000000000
     21460      1075  TIP3      H1              1.6882921395      -12.4265112044       32.2027844381  TIP3      915             0.0000000000
     21461      1075  TIP3      H2              2.0750474847      -13.0693219921       30.9654377965  TIP3      915             0.0000000000
     21462      1076  TIP3      OH2            -4.4573265596      -10.4104327441       30.9819413689  TIP3      916             0.0000000000
     21463      1076  TIP3      H1             -4.0478938885      -11.2582782882       31.2526771571  TIP3      916             0.0000000000
     21464      1076  TIP3      H2             -4.2574443063      -10.3982719443       30.0305930521  TIP3      916             0.0000000000
     21465      1077  TIP3      OH2           -10.7419005075      -12.0029315010       27.9914200755  TIP3      917             0.0000000000
     21466      1077  TIP3      H1            -10.8188927372      -11.1732553241       27.4708363860  TIP3      917             0.0000000000
     21467      1077  TIP3      H2            -11.2708594687      -12.5910079342       27.4133328742  TIP3      917             0.0000000000
     21468      1078  TIP3      OH2            -3.5120142959      -12.1643961964       26.6691392674  TIP3      918             0.0000000000
     21469      1078  TIP3      H1             -3.0512580119      -12.5463331635       27.4494527275  TIP3      918             0.0000000000
     21470      1078  TIP3      H2             -2.9329937353      -11.4152293494       26.5078988046  TIP3      918             0.0000000000
     21471      1079  TIP3      OH2           -13.5748935438       -9.2381206431       29.0222306918  TIP3      919             0.0000000000
     21472      1079  TIP3      H1            -12.9715312473       -9.8636573127       29.4658895625  TIP3      919             0.0000000000
     21473      1079  TIP3      H2            -14.3162073846       -9.8259366896       28.7795851671  TIP3      919             0.0000000000
     21474      1080  TIP3      OH2            -9.2111963361       -7.8897499206       28.3317939944  TIP3      920             0.0000000000
     21475      1080  TIP3      H1             -8.4136573774       -8.3988577582       28.5709906793  TIP3      920             0.0000000000
     21476      1080  TIP3      H2             -9.6461953580       -8.5764221808       27.7631251327  TIP3      920             0.0000000000
     21477      1081  TIP3      OH2             2.3418840587      -11.5952092812       34.3316528686  TIP3      921             0.0000000000
     21478      1081  TIP3      H1              2.1905316781      -10.8912303145       33.6695593338  TIP3      921             0.0000000000
     21479      1081  TIP3      H2              1.7862586434      -11.2193411115       35.0299247136  TIP3      921             0.0000000000
     21480      1082  TIP3      OH2           -11.7766082001      -12.8472590679       32.3016175131  TIP3      922             0.0000000000
     21481      1082  TIP3      H1            -12.2443782852      -12.3386211781       31.6079038862  TIP3      922             0.0000000000
     21482      1082  TIP3      H2            -12.3341417718      -12.7272983005       33.0920677093  TIP3      922             0.0000000000
     21483      1083  TIP3      OH2            -4.7538040817       -3.5291710528       25.7041544849  TIP3      923             0.0000000000
     21484      1083  TIP3      H1             -5.0839692577       -3.5706641156       24.7822799307  TIP3      923             0.0000000000
     21485      1083  TIP3      H2             -5.0576096259       -2.6269864089       25.9759281491  TIP3      923             0.0000000000
     21486      1084  TIP3      OH2            -9.4268738359       -5.5565995488       32.2758733099  TIP3      924             0.0000000000
     21487      1084  TIP3      H1            -10.1291479005       -4.8804319914       32.4082859528  TIP3      924             0.0000000000
     21488      1084  TIP3      H2             -8.7525529595       -5.0369688640       31.7858336767  TIP3      924             0.0000000000
     21489      1085  TIP3      OH2            -1.7130571275      -12.0522536215       28.6894915252  TIP3      925             0.0000000000
     21490      1085  TIP3      H1             -1.6686075148      -12.6226334626       29.4809848297  TIP3      925             0.0000000000
     21491      1085  TIP3      H2             -0.7783053823      -12.1047214195       28.4371665402  TIP3      925             0.0000000000
     21492      1086  TIP3      OH2           -12.0897914512      -11.1161411745       30.1786256181  TIP3      926             0.0000000000
     21493      1086  TIP3      H1            -11.5558626332      -10.5701000164       30.7983017181  TIP3      926             0.0000000000
     21494      1086  TIP3      H2            -11.4925842052      -11.2570079603       29.4122673174  TIP3      926             0.0000000000
     21495      1087  TIP3      OH2           -11.2524666623       -3.6164801696       32.9542392147  TIP3      927             0.0000000000
     21496      1087  TIP3      H1            -11.3480492523       -2.7576157924       32.5060543282  TIP3      927             0.0000000000
     21497      1087  TIP3      H2            -12.0161412534       -3.5963780229       33.5628557218  TIP3      927             0.0000000000
     21498      1088  TIP3      OH2           -15.3073016258       -4.0038049499       23.9163565207  TIP3      928             0.0000000000
     21499      1088  TIP3      H1            -15.1741266645       -3.5272356605       23.0730664935  TIP3      928             0.0000000000
     21500      1088  TIP3      H2            -15.1675373868       -3.2988070124       24.5851093867  TIP3      928             0.0000000000
     21501      1089  TIP3      OH2            -1.4578580048       -1.8786894391       30.2116673559  TIP3      929             0.0000000000
     21502      1089  TIP3      H1             -2.3238479955       -1.6492207638       30.6134772853  TIP3      929             0.0000000000
     21503      1089  TIP3      H2             -1.0651152872       -0.9898093502       30.2088191335  TIP3      929             0.0000000000
     21504      1090  TIP3      OH2            -1.2683614030      -13.7479710310       32.6725952555  TIP3      930             0.0000000000
     21505      1090  TIP3      H1             -2.0454901043      -13.3420658333       32.2303604715  TIP3      930             0.0000000000
     21506      1090  TIP3      H2             -0.7116628529      -13.8043553582       31.8598064241  TIP3      930             0.0000000000
     21507      1091  TIP3      OH2            -8.2038812903      -15.6255296525       29.4664188246  TIP3      931             0.0000000000
     21508      1091  TIP3      H1             -8.5442412158      -16.5315199704       29.5232542845  TIP3      931             0.0000000000
     21509      1091  TIP3      H2             -8.9761183986      -15.1183675026       29.7997976456  TIP3      931             0.0000000000
     21510      1092  TIP3      OH2            -2.8139698316       -0.2487597854       27.2992983589  TIP3      932             0.0000000000
     21511      1092  TIP3      H1             -2.6025208757       -1.1441622809       26.9734241865  TIP3      932             0.0000000000
     21512      1092  TIP3      H2             -1.9375747087        0.2099407000       27.1813460821  TIP3      932             0.0000000000
     21513      1093  TIP3      OH2            -2.1854802691       -2.6353252889       26.0025909848  TIP3      933             0.0000000000
     21514      1093  TIP3      H1             -2.9969014882       -2.8649975101       25.5004823333  TIP3      933             0.0000000000
     21515      1093  TIP3      H2             -2.2815633112       -3.2585961144       26.7564876140  TIP3      933             0.0000000000
     21516      1094  TIP3      OH2             1.1997504739       -3.9760312078       33.3372293656  TIP3      934             0.0000000000
     21517      1094  TIP3      H1              0.5316344789       -4.0494539339       34.0528816362  TIP3      934             0.0000000000
     21518      1094  TIP3      H2              0.9631385088       -3.0955191483       32.9833285292  TIP3      934             0.0000000000
     21519      1095  TIP3      OH2            -5.4721477991       -6.9211283161       24.4138449913  TIP3      935             0.0000000000
     21520      1095  TIP3      H1             -5.8809770707       -6.0406405487       24.2879265034  TIP3      935             0.0000000000
     21521      1095  TIP3      H2             -4.7834504727       -6.9401118736       23.7256768553  TIP3      935             0.0000000000
     21522      1096  TIP3      OH2            -4.8846841444       -8.7196154854       20.6723130216  TIP3      936             0.0000000000
     21523      1096  TIP3      H1             -4.2595509658       -8.4484513362       21.3609608454  TIP3      936             0.0000000000
     21524      1096  TIP3      H2             -5.7058950613       -8.8695483241       21.1653652168  TIP3      936             0.0000000000
     21525      1097  TIP3      OH2             1.8025434075       -7.6328614633       32.3995633301  TIP3      937             0.0000000000
     21526      1097  TIP3      H1              0.9308317667       -7.1546863910       32.4380510681  TIP3      937             0.0000000000
     21527      1097  TIP3      H2              2.3047967666       -6.9958924498       31.8405387080  TIP3      937             0.0000000000
     21528      1098  TIP3      OH2            -1.7837817343       -6.7806722696       25.5236296969  TIP3      938             0.0000000000
     21529      1098  TIP3      H1             -2.5812853292       -6.5646299710       26.0619475057  TIP3      938             0.0000000000
     21530      1098  TIP3      H2             -1.2831002433       -7.3295014091       26.1733493818  TIP3      938             0.0000000000
     21531      1099  TIP3      OH2            -1.8375190389       -8.7735617457       34.5897310224  TIP3      939             0.0000000000
     21532      1099  TIP3      H1             -1.6451049271       -7.9743543411       35.1178451129  TIP3      939             0.0000000000
     21533      1099  TIP3      H2             -2.4249336193       -8.3686638038       33.9178113442  TIP3      939             0.0000000000
     21534      1100  TIP3      OH2           -10.8409148376       -6.0814883455       27.1641759026  TIP3      940             0.0000000000
     21535      1100  TIP3      H1            -11.3079388389       -6.5599205746       26.4364132868  TIP3      940             0.0000000000
     21536      1100  TIP3      H2            -10.2298813357       -6.7639309939       27.5085111832  TIP3      940             0.0000000000
     21537      1101  TIP3      OH2            -8.9177495118       -2.8198953505       29.8964414177  TIP3      941             0.0000000000
     21538      1101  TIP3      H1             -9.0304068332       -3.2475289334       29.0340241769  TIP3      941             0.0000000000
     21539      1101  TIP3      H2             -8.2492837206       -3.3851125069       30.3366503821  TIP3      941             0.0000000000
     21540      1102  TIP3      OH2            -9.9954737741       -7.7897666623       30.9824230104  TIP3      942             0.0000000000
     21541      1102  TIP3      H1            -10.1912966668       -7.5450260763       30.0628838598  TIP3      942             0.0000000000
     21542      1102  TIP3      H2             -9.9249671374       -6.8978180871       31.4110067879  TIP3      942             0.0000000000
     21543      1103  TIP3      OH2            -3.7676692011       -1.5491606908       31.5299987590  TIP3      943             0.0000000000
     21544      1103  TIP3      H1             -4.2304795026       -0.9835034726       32.1743695833  TIP3      943             0.0000000000
     21545      1103  TIP3      H2             -3.8713534113       -2.4259102554       31.9407109335  TIP3      943             0.0000000000
     21546      1104  TIP3      OH2            -9.2965450942       -3.2655850388       35.2522028677  TIP3      944             0.0000000000
     21547      1104  TIP3      H1             -9.9193432887       -2.7197924752       35.7778585418  TIP3      944             0.0000000000
     21548      1104  TIP3      H2             -9.8103170287       -3.3899495048       34.4354654646  TIP3      944             0.0000000000
     21549      1105  TIP3      OH2            -3.1400871368       -7.7106832960       23.0894102203  TIP3      945             0.0000000000
     21550      1105  TIP3      H1             -2.6735049877       -7.5731170840       23.9409847389  TIP3      945             0.0000000000
     21551      1105  TIP3      H2             -2.7565486210       -6.9997954498       22.5183696827  TIP3      945             0.0000000000
     21552      1106  TIP3      OH2           -11.8233870446       -6.9705985737       34.2742741965  TIP3      946             0.0000000000
     21553      1106  TIP3      H1            -12.2932018109       -6.5131214142       35.0005075966  TIP3      946             0.0000000000
     21554      1106  TIP3      H2            -12.3501276514       -6.7460648525       33.4719908036  TIP3      946             0.0000000000
     21555      1107  TIP3      OH2            -5.4633990189       -0.9383420461       25.8475906725  TIP3      947             0.0000000000
     21556      1107  TIP3      H1             -5.0024127567       -0.4270364949       26.5311083481  TIP3      947             0.0000000000
     21557      1107  TIP3      H2             -6.0468907190       -0.2651283292       25.4667869401  TIP3      947             0.0000000000
     21558      1108  TIP3      OH2           -10.9968769648       -1.4579086881       36.2310814756  TIP3      948             0.0000000000
     21559      1108  TIP3      H1            -11.1072211085       -1.0032654861       35.3593174735  TIP3      948             0.0000000000
     21560      1108  TIP3      H2            -11.9159453341       -1.4021659159       36.5713873105  TIP3      948             0.0000000000
     21561      1109  TIP3      OH2             0.4364760102      -15.6957583414       22.8689510414  TIP3      949             0.0000000000
     21562      1109  TIP3      H1             -0.4782430065      -15.4019685170       23.0871635447  TIP3      949             0.0000000000
     21563      1109  TIP3      H2              0.7300207730      -14.9173308004       22.3690174322  TIP3      949             0.0000000000
     21564      1110  TIP3      OH2           -12.1958401193       -7.4269987837       25.2605989405  TIP3      950             0.0000000000
     21565      1110  TIP3      H1            -12.4412313757       -6.7836175197       24.5607251821  TIP3      950             0.0000000000
     21566      1110  TIP3      H2            -12.9738006248       -7.9947390800       25.3568402196  TIP3      950             0.0000000000
     21567      1111  TIP3      OH2             1.8348222560       -1.8480008190       21.6268668835  TIP3      951             0.0000000000
     21568      1111  TIP3      H1              1.8039093554       -1.1881879533       20.9180551584  TIP3      951             0.0000000000
     21569      1111  TIP3      H2              2.7476454951       -2.1825349510       21.5532473329  TIP3      951             0.0000000000
     21570      1112  TIP3      OH2           -15.3972996667       -4.7774694115       33.7484883720  TIP3      952             0.0000000000
     21571      1112  TIP3      H1            -15.7946556065       -4.6561890323       32.8636715152  TIP3      952             0.0000000000
     21572      1112  TIP3      H2            -15.2814296452       -5.7400230954       33.7429853821  TIP3      952             0.0000000000
     21573      1113  TIP3      OH2           -16.1828384689       -2.4499355859       29.7900516920  TIP3      953             0.0000000000
     21574      1113  TIP3      H1            -15.6751549738       -3.2122551835       29.4349326048  TIP3      953             0.0000000000
     21575      1113  TIP3      H2            -15.6281746240       -2.1626649222       30.5530988703  TIP3      953             0.0000000000
     21576      1114  TIP3      OH2             2.1224892369       -1.3612489553       36.0916355010  TIP3      954             0.0000000000
     21577      1114  TIP3      H1              2.3020163982       -2.1355982890       36.6469475241  TIP3      954             0.0000000000
     21578      1114  TIP3      H2              1.1823785998       -1.2039704925       36.3543332254  TIP3      954             0.0000000000
     21579      1115  TIP3      OH2            -6.9681331455       -1.6197199830       35.4810995442  TIP3      955             0.0000000000
     21580      1115  TIP3      H1             -7.0647402598       -0.6893912694       35.7929524079  TIP3      955             0.0000000000
     21581      1115  TIP3      H2             -7.8862434242       -1.8904191390       35.2515575531  TIP3      955             0.0000000000
     21582      1116  TIP3      OH2            -5.9556909202        1.8145794754       24.2917379653  TIP3      956             0.0000000000
     21583      1116  TIP3      H1             -6.0676018917        2.1268016808       23.3576701062  TIP3      956             0.0000000000
     21584      1116  TIP3      H2             -5.9677999594        2.6819294096       24.7413828521  TIP3      956             0.0000000000
     21585      1117  TIP3      OH2           -12.5626450488        0.5137387159       26.7577475778  TIP3      957             0.0000000000
     21586      1117  TIP3      H1            -12.2508470460        0.2578355036       27.6579198165  TIP3      957             0.0000000000
     21587      1117  TIP3      H2            -13.4508800419        0.1260076231       26.7517886755  TIP3      957             0.0000000000
     21588      1118  TIP3      OH2            -3.2172503583        1.3898821565       21.6706426031  TIP3      958             0.0000000000
     21589      1118  TIP3      H1             -2.6129741121        0.7192931700       21.2869817568  TIP3      958             0.0000000000
     21590      1118  TIP3      H2             -3.0630009392        1.2032603804       22.6123846692  TIP3      958             0.0000000000
     21591      1119  TIP3      OH2            -3.3646337975        0.9928476728       24.4782235731  TIP3      959             0.0000000000
     21592      1119  TIP3      H1             -4.2796647399        1.3333088396       24.5549549795  TIP3      959             0.0000000000
     21593      1119  TIP3      H2             -3.4875635513        0.0774905709       24.7773141468  TIP3      959             0.0000000000
     21594      1120  TIP3      OH2            -0.7342682196      -10.1185478818       36.8322525384  TIP3      960             0.0000000000
     21595      1120  TIP3      H1             -1.0883034532       -9.4899472253       36.1708824048  TIP3      960             0.0000000000
     21596      1120  TIP3      H2             -0.2249411311      -10.6873440201       36.2286039289  TIP3      960             0.0000000000
     21597      1121  TIP3      OH2           -13.2073968696       -3.6541779992       34.8590919581  TIP3      961             0.0000000000
     21598      1121  TIP3      H1            -12.7965753431       -4.3628314889       35.4083624871  TIP3      961             0.0000000000
     21599      1121  TIP3      H2            -13.9248525491       -4.1163168903       34.3655461516  TIP3      961             0.0000000000
     21600      1122  TIP3      OH2           -10.4379154848      -14.3766165695       30.6670589445  TIP3      962             0.0000000000
     21601      1122  TIP3      H1            -11.1874491028      -14.3902052425       30.0332329605  TIP3      962             0.0000000000
     21602      1122  TIP3      H2            -10.8772012493      -13.8912426452       31.4083950533  TIP3      962             0.0000000000
     21603      1123  TIP3      OH2            -5.4623357406      -15.4044821797       33.8758402406  TIP3      963             0.0000000000
     21604      1123  TIP3      H1             -5.5804245400      -16.0793460475       34.5551003280  TIP3      963             0.0000000000
     21605      1123  TIP3      H2             -6.3786525110      -15.0925919054       33.7460798439  TIP3      963             0.0000000000
     21606      1124  TIP3      OH2            -2.7815671861      -11.2863586691       34.5465824044  TIP3      964             0.0000000000
     21607      1124  TIP3      H1             -3.2531046148      -11.4341602850       35.3927820278  TIP3      964             0.0000000000
     21608      1124  TIP3      H2             -2.6376731264      -10.3190967384       34.5382659597  TIP3      964             0.0000000000
     21609      1125  TIP3      OH2            -2.3018932508       -6.2275449549       20.9997991223  TIP3      965             0.0000000000
     21610      1125  TIP3      H1             -2.7596866208       -6.2270924353       20.1497688749  TIP3      965             0.0000000000
     21611      1125  TIP3      H2             -1.5138701645       -5.7089801483       20.7852115110  TIP3      965             0.0000000000
     21612      1126  TIP3      OH2           -10.6630141136       -9.9311001469       32.2536538215  TIP3      966             0.0000000000
     21613      1126  TIP3      H1            -11.2598291413       -9.6415632937       32.9571676675  TIP3      966             0.0000000000
     21614      1126  TIP3      H2            -10.4075144442       -9.0697131919       31.8345206562  TIP3      966             0.0000000000
     21615      1127  TIP3      OH2           -10.4637702452       -9.5440415428       26.7303312902  TIP3      967             0.0000000000
     21616      1127  TIP3      H1            -11.4227196697       -9.5358472763       26.5324792819  TIP3      967             0.0000000000
     21617      1127  TIP3      H2            -10.1075083477       -9.3873477148       25.8216592980  TIP3      967             0.0000000000
     21618      1128  TIP3      OH2            -4.5952067544       -9.2727612569       25.5220974452  TIP3      968             0.0000000000
     21619      1128  TIP3      H1             -5.0317130024       -8.5078210003       25.0760671495  TIP3      968             0.0000000000
     21620      1128  TIP3      H2             -4.2291503031       -9.7651048713       24.7612321878  TIP3      968             0.0000000000
     21621      1129  TIP3      OH2            -6.2051288108       -8.9034966650       36.4852217451  TIP3      969             0.0000000000
     21622      1129  TIP3      H1             -6.3993090730       -9.7927595022       36.8546573631  TIP3      969             0.0000000000
     21623      1129  TIP3      H2             -5.3231607725       -8.7283948145       36.8376655658  TIP3      969             0.0000000000
     21624      1130  TIP3      OH2            -4.3387346193       -9.6676052839       28.3104928195  TIP3      970             0.0000000000
     21625      1130  TIP3      H1             -4.1494916756       -8.8180519570       27.8756076150  TIP3      970             0.0000000000
     21626      1130  TIP3      H2             -4.3435604871      -10.2419817882       27.5275042959  TIP3      970             0.0000000000
     21627      1131  TIP3      OH2           -12.0057483109       -9.5329827088       34.7784382886  TIP3      971             0.0000000000
     21628      1131  TIP3      H1            -12.0854892068       -8.5505092736       34.6814341110  TIP3      971             0.0000000000
     21629      1131  TIP3      H2            -12.4795495123       -9.8259684435       33.9621720644  TIP3      971             0.0000000000
     21630      1132  TIP3      OH2           -15.2848579562      -13.5321667756       27.2267062789  TIP3      972             0.0000000000
     21631      1132  TIP3      H1            -15.3708169963      -12.6301570364       27.6154665492  TIP3      972             0.0000000000
     21632      1132  TIP3      H2            -15.5745551723      -13.3822215434       26.3094689411  TIP3      972             0.0000000000
     21633      1133  TIP3      OH2            -4.6489837440       -8.3515792340       32.6464923306  TIP3      973             0.0000000000
     21634      1133  TIP3      H1             -4.4632827897       -9.1308069855       32.0763441436  TIP3      973             0.0000000000
     21635      1133  TIP3      H2             -5.2396302884       -8.7839142130       33.2959240383  TIP3      973             0.0000000000
     21636      1134  TIP3      OH2            -8.0216026382      -12.3606855757       27.7017903579  TIP3      974             0.0000000000
     21637      1134  TIP3      H1             -8.9732950604      -12.2289767566       27.9208435055  TIP3      974             0.0000000000
     21638      1134  TIP3      H2             -7.6142719593      -12.2268529307       28.5697161666  TIP3      974             0.0000000000
     21639      1135  TIP3      OH2           -12.9331847179      -10.5199961115       26.3248511348  TIP3      975             0.0000000000
     21640      1135  TIP3      H1            -13.8565814687      -10.2621523917       26.1573020071  TIP3      975             0.0000000000
     21641      1135  TIP3      H2            -12.8754156769      -11.3999180674       25.9107463903  TIP3      975             0.0000000000
     21642      1136  TIP3      OH2            -9.5140552284      -10.0230551148       24.2550306438  TIP3      976             0.0000000000
     21643      1136  TIP3      H1             -8.7455332734      -10.6031164932       24.1361871721  TIP3      976             0.0000000000
     21644      1136  TIP3      H2             -9.9379533208       -9.9682295429       23.3756216713  TIP3      976             0.0000000000
     21645      1137  TIP3      OH2            -3.4267512415      -13.0237838334       30.8939149456  TIP3      977             0.0000000000
     21646      1137  TIP3      H1             -4.0939733786      -13.0938799898       31.6015574877  TIP3      977             0.0000000000
     21647      1137  TIP3      H2             -3.9800706593      -13.2633800696       30.1214869749  TIP3      977             0.0000000000
     21648      1138  TIP3      OH2           -10.7749607885       -9.5335850380       21.8799749256  TIP3      978             0.0000000000
     21649      1138  TIP3      H1            -10.8836866579       -9.7647380556       20.9484845963  TIP3      978             0.0000000000
     21650      1138  TIP3      H2             -9.9228574589       -9.0488898103       21.7882742313  TIP3      978             0.0000000000
     21651      1139  TIP3      OH2            -0.8336363684        2.4950884137       37.2714315457  TIP3      979             0.0000000000
     21652      1139  TIP3      H1             -0.7934096050        2.7677462497       36.3395024156  TIP3      979             0.0000000000
     21653      1139  TIP3      H2              0.1090059263        2.4189660625       37.5410986493  TIP3      979             0.0000000000
     21654      1140  TIP3      OH2           -12.4957542450       -5.6036278670       36.6227712548  TIP3      980             0.0000000000
     21655      1140  TIP3      H1            -11.7933275332       -5.3541452135       37.2682119181  TIP3      980             0.0000000000
     21656      1140  TIP3      H2            -13.1750390242       -5.9032395135       37.2497853887  TIP3      980             0.0000000000
     21657      1141  TIP3      OH2            -7.1909350439       -9.6348884729       29.0732737942  TIP3      981             0.0000000000
     21658      1141  TIP3      H1             -6.2415456079       -9.6252253920       28.8336735879  TIP3      981             0.0000000000
     21659      1141  TIP3      H2             -7.1457565141      -10.2058281209       29.8489377650  TIP3      981             0.0000000000
     21660      1142  TIP3      OH2           -12.0055443536      -13.5095132982       26.1260631738  TIP3      982             0.0000000000
     21661      1142  TIP3      H1            -12.7077938711      -14.1084060556       26.4458248532  TIP3      982             0.0000000000
     21662      1142  TIP3      H2            -11.2749375700      -14.1474374107       25.9861154583  TIP3      982             0.0000000000
     21663      1143  TIP3      OH2            -8.2632496487      -11.2278950521       31.9388632229  TIP3      983             0.0000000000
     21664      1143  TIP3      H1             -9.0272533283      -10.6036969946       31.9320574834  TIP3      983             0.0000000000
     21665      1143  TIP3      H2             -7.6024078801      -10.7698882893       32.4846057070  TIP3      983             0.0000000000
     21666      1144  TIP3      OH2            -7.3970058287       -5.0638787883       24.0486410309  TIP3      984             0.0000000000
     21667      1144  TIP3      H1             -8.0411578725       -5.6402314043       23.6215345757  TIP3      984             0.0000000000
     21668      1144  TIP3      H2             -7.8687150657       -4.8638849155       24.8944337555  TIP3      984             0.0000000000
     21669      1145  TIP3      OH2            -0.4492107709       -6.1728075548       32.3592141772  TIP3      985             0.0000000000
     21670      1145  TIP3      H1             -0.0318577569       -5.3159004204       32.1579514574  TIP3      985             0.0000000000
     21671      1145  TIP3      H2             -1.3512553472       -5.9907988978       32.0392923152  TIP3      985             0.0000000000
     21672      1146  TIP3      OH2            -5.7332911551       -4.2525422731       35.1430991215  TIP3      986             0.0000000000
     21673      1146  TIP3      H1             -6.2175674926       -4.8292136372       35.7472578699  TIP3      986             0.0000000000
     21674      1146  TIP3      H2             -6.1008414600       -3.3805011520       35.3806739644  TIP3      986             0.0000000000
     21675      1147  TIP3      OH2            -2.8979418428      -10.5423861806       23.4238582954  TIP3      987             0.0000000000
     21676      1147  TIP3      H1             -2.0945518319      -10.5372383353       23.9890051807  TIP3      987             0.0000000000
     21677      1147  TIP3      H2             -2.8985926381       -9.6381450581       23.0619644938  TIP3      987             0.0000000000
     21678      1148  TIP3      OH2           -11.4189703705       -5.6505869178       29.9632647257  TIP3      988             0.0000000000
     21679      1148  TIP3      H1            -10.9670569883       -5.9894186713       29.1758999052  TIP3      988             0.0000000000
     21680      1148  TIP3      H2            -12.2655062370       -5.4137194337       29.5288007507  TIP3      988             0.0000000000
     21681      1149  TIP3      OH2            -5.5681610116       -3.4751871312       23.0015025061  TIP3      989             0.0000000000
     21682      1149  TIP3      H1             -6.0370140075       -2.6177291570       23.0880812939  TIP3      989             0.0000000000
     21683      1149  TIP3      H2             -6.2545008314       -4.1403088575       23.2684260684  TIP3      989             0.0000000000
     21684      1150  TIP3      OH2           -15.5735061561       -7.4095699052       34.8267609737  TIP3      990             0.0000000000
     21685      1150  TIP3      H1            -16.0057772704       -7.8727146067       35.5715070936  TIP3      990             0.0000000000
     21686      1150  TIP3      H2            -16.1540526972       -7.6534144570       34.0673672557  TIP3      990             0.0000000000
     21687      1151  TIP3      OH2            -8.4042483726       -7.3148865373       36.7051385028  TIP3      991             0.0000000000
     21688      1151  TIP3      H1             -8.8493965979       -7.8880363869       36.0414235462  TIP3      991             0.0000000000
     21689      1151  TIP3      H2             -7.5136995366       -7.7164014657       36.6350382213  TIP3      991             0.0000000000
     21690      1152  TIP3      OH2            -3.7063055851       -1.7865135476       34.8212154976  TIP3      992             0.0000000000
     21691      1152  TIP3      H1             -4.6675659715       -1.8018991676       34.8202849875  TIP3      992             0.0000000000
     21692      1152  TIP3      H2             -3.5434822054       -1.7394554146       35.7808362124  TIP3      992             0.0000000000
     21693      1153  TIP3      OH2             1.6228143510       -9.9196882727       23.6401774396  TIP3      993             0.0000000000
     21694      1153  TIP3      H1              1.3954673636      -10.2581052855       22.7607293342  TIP3      993             0.0000000000
     21695      1153  TIP3      H2              1.6279445112       -8.9536571735       23.4552429987  TIP3      993             0.0000000000
     21696      1154  TIP3      OH2             2.1401351181       -4.0914251553       36.3441359133  TIP3      994             0.0000000000
     21697      1154  TIP3      H1              1.1925924429       -3.8034527376       36.4087528538  TIP3      994             0.0000000000
     21698      1154  TIP3      H2              2.3015081840       -4.0379677129       35.3804971514  TIP3      994             0.0000000000
     21699      1155  TIP3      OH2             0.0744500106       -1.4250336995       23.5811659444  TIP3      995             0.0000000000
     21700      1155  TIP3      H1             -0.7827224690       -1.6876245901       23.1720930526  TIP3      995             0.0000000000
     21701      1155  TIP3      H2              0.6380051566       -1.4742887320       22.7720205218  TIP3      995             0.0000000000
     21702      1156  TIP3      OH2            -2.5815773378       -6.4040548931       30.5199416909  TIP3      996             0.0000000000
     21703      1156  TIP3      H1             -3.4622503240       -6.7949009478       30.4461372158  TIP3      996             0.0000000000
     21704      1156  TIP3      H2             -2.0464079815       -7.0425748006       30.0117489997  TIP3      996             0.0000000000
     21705      1157  TIP3      OH2            -9.9977032266       -1.9968522512       26.5576108492  TIP3      997             0.0000000000
     21706      1157  TIP3      H1             -9.9099901777       -1.0257837727       26.4259188942  TIP3      997             0.0000000000
     21707      1157  TIP3      H2            -10.9542240945       -2.1005216319       26.5665346633  TIP3      997             0.0000000000
     21708      1158  TIP3      OH2           -14.0525158915       -7.5189958888       21.2415233395  TIP3      998             0.0000000000
     21709      1158  TIP3      H1            -13.3357473882       -7.1125767017       21.7529493907  TIP3      998             0.0000000000
     21710      1158  TIP3      H2            -14.8219962543       -7.0486946509       21.5778953209  TIP3      998             0.0000000000
     21711      1159  TIP3      OH2            -8.8909433202       -4.4548985676       26.3329421521  TIP3      999             0.0000000000
     21712      1159  TIP3      H1             -9.2434617439       -3.5364178005       26.4045875924  TIP3      999             0.0000000000
     21713      1159  TIP3      H2             -9.6262101999       -4.9934737993       26.6923903760  TIP3      999             0.0000000000
     21714      1160  TIP3      OH2            -7.7215566154       -0.2740349791       33.2175217502  TIP3      1000            0.0000000000
     21715      1160  TIP3      H1             -7.0893091245        0.2971619745       32.7568845566  TIP3      1000            0.0000000000
     21716      1160  TIP3      H2             -7.2176172004       -0.5689186619       33.9889825106  TIP3      1000            0.0000000000
     21717      1161  TIP3      OH2            -9.9688427509        0.6064242790       25.9122367369  TIP3      1001            0.0000000000
     21718      1161  TIP3      H1            -10.9387871347        0.6921081125       26.0466156505  TIP3      1001            0.0000000000
     21719      1161  TIP3      H2             -9.6767874188        1.5235663239       26.1096057301  TIP3      1001            0.0000000000
     21720      1162  TIP3      OH2            -4.9171335461       -4.1706258955       32.4103698119  TIP3      1002            0.0000000000
     21721      1162  TIP3      H1             -5.0445518372       -4.1337788666       33.3784651409  TIP3      1002            0.0000000000
     21722      1162  TIP3      H2             -4.1813879967       -4.8093449169       32.3472389737  TIP3      1002            0.0000000000
     21723      1163  TIP3      OH2            -2.1599406366       -2.4726491378       22.5638156186  TIP3      1003            0.0000000000
     21724      1163  TIP3      H1             -2.2765171860       -3.3299838629       23.0335261499  TIP3      1003            0.0000000000
     21725      1163  TIP3      H2             -2.6333297376       -2.6082929146       21.7294082393  TIP3      1003            0.0000000000
     21726      1164  TIP3      OH2            -2.0030034679        0.4271367513       34.9918948748  TIP3      1004            0.0000000000
     21727      1164  TIP3      H1             -2.7406327795       -0.1610725601       34.7183407644  TIP3      1004            0.0000000000
     21728      1164  TIP3      H2             -1.7921383029        0.8764914706       34.1432138050  TIP3      1004            0.0000000000
     21729      1165  TIP3      OH2             2.5072615217        1.1715131575       21.6125140094  TIP3      1005            0.0000000000
     21730      1165  TIP3      H1              2.7967096832        2.0514897826       21.3517669334  TIP3      1005            0.0000000000
     21731      1165  TIP3      H2              1.5438994482        1.2918223786       21.6948422676  TIP3      1005            0.0000000000
     21732      1166  TIP3      OH2           -13.6340501356      -12.6707250592       34.2278565398  TIP3      1006            0.0000000000
     21733      1166  TIP3      H1            -13.9070143885      -11.9814254216       33.5705187970  TIP3      1006            0.0000000000
     21734      1166  TIP3      H2            -13.9038019407      -13.5180175839       33.8386830576  TIP3      1006            0.0000000000
     21735      1167  TIP3      OH2            -1.4176851132       -4.7889702118       23.6388627555  TIP3      1007            0.0000000000
     21736      1167  TIP3      H1             -1.5798585877       -5.6080321233       24.1523748459  TIP3      1007            0.0000000000
     21737      1167  TIP3      H2             -0.4829342397       -4.8915585385       23.3901108658  TIP3      1007            0.0000000000
     21738      1168  TIP3      OH2           -13.0437778099       -1.0401467574       33.8454420798  TIP3      1008            0.0000000000
     21739      1168  TIP3      H1            -13.1268502915       -1.9203023223       33.4712017874  TIP3      1008            0.0000000000
     21740      1168  TIP3      H2            -13.7466891619       -0.5961443969       33.3152481970  TIP3      1008            0.0000000000
     21741      1169  TIP3      OH2            -9.6887832174       -2.5024553874       22.4268377099  TIP3      1009            0.0000000000
     21742      1169  TIP3      H1             -8.8079546994       -2.7937257984       22.6878117213  TIP3      1009            0.0000000000
     21743      1169  TIP3      H2             -9.6802726214       -1.5758315208       22.7768124617  TIP3      1009            0.0000000000
     21744      1170  TIP3      OH2           -12.8593331980       -5.3852146392       23.2485097708  TIP3      1010            0.0000000000
     21745      1170  TIP3      H1            -13.7054607762       -4.9817460844       23.5372543145  TIP3      1010            0.0000000000
     21746      1170  TIP3      H2            -12.3215213005       -4.5956626789       23.0853964773  TIP3      1010            0.0000000000
     21747      1171  TIP3      OH2            -4.7405630409      -12.8266543952       33.4811682675  TIP3      1011            0.0000000000
     21748      1171  TIP3      H1             -3.9391813892      -12.4725417595       33.9205458408  TIP3      1011            0.0000000000
     21749      1171  TIP3      H2             -4.7801818659      -13.7469029230       33.8092591796  TIP3      1011            0.0000000000
     21750      1172  TIP3      OH2            -4.0896387652      -13.2250935684       24.3180927378  TIP3      1012            0.0000000000
     21751      1172  TIP3      H1             -4.7918349851      -12.5717547262       24.1538055184  TIP3      1012            0.0000000000
     21752      1172  TIP3      H2             -3.7423000314      -12.9116632691       25.1785044211  TIP3      1012            0.0000000000
     21753      1173  TIP3      OH2            -6.6175844407       -0.7321702117       22.9893033166  TIP3      1013            0.0000000000
     21754      1173  TIP3      H1             -7.5294086972       -0.4355400901       23.2136683190  TIP3      1013            0.0000000000
     21755      1173  TIP3      H2             -6.1276850051        0.0936137951       23.1373462281  TIP3      1013            0.0000000000
     21756      1174  TIP3      OH2            -6.6476486063      -11.3380060358       25.5311201101  TIP3      1014            0.0000000000
     21757      1174  TIP3      H1             -6.2914813571      -10.4758274750       25.8031735923  TIP3      1014            0.0000000000
     21758      1174  TIP3      H2             -7.2735601542      -11.5657453800       26.2578397449  TIP3      1014            0.0000000000
     21759      1175  TIP3      OH2            -6.0348597922      -10.1896307408       34.0416880458  TIP3      1015            0.0000000000
     21760      1175  TIP3      H1             -6.1010832870       -9.8518922324       34.9509484638  TIP3      1015            0.0000000000
     21761      1175  TIP3      H2             -5.6225294378      -11.0732889865       34.1267343942  TIP3      1015            0.0000000000
     21762      1176  TIP3      OH2            -6.1396134061      -14.6081373032       25.6191866184  TIP3      1016            0.0000000000
     21763      1176  TIP3      H1             -6.3941097765      -13.7034007344       25.8968100292  TIP3      1016            0.0000000000
     21764      1176  TIP3      H2             -5.3403314383      -14.4039732467       25.0958306832  TIP3      1016            0.0000000000
     21765      1177  TIP3      OH2            -9.1832724218       -0.1306268813       23.4923715009  TIP3      1017            0.0000000000
     21766      1177  TIP3      H1             -9.1026209279        0.7733726515       23.1081266609  TIP3      1017            0.0000000000
     21767      1177  TIP3      H2             -9.5273181707        0.1231335830       24.3797863997  TIP3      1017            0.0000000000
     21768      1178  TIP3      OH2            -0.4245577267      -12.3518151002       35.1915942482  TIP3      1018            0.0000000000
     21769      1178  TIP3      H1             -1.3686443716      -12.0916040498       35.0576978867  TIP3      1018            0.0000000000
     21770      1178  TIP3      H2             -0.2074296168      -12.5375143345       34.2621424423  TIP3      1018            0.0000000000
     21771      1179  TIP3      OH2            -1.7250011320       -8.9643209901       29.2831874509  TIP3      1019            0.0000000000
     21772      1179  TIP3      H1             -2.4109673210       -9.6518685743       29.3629430199  TIP3      1019            0.0000000000
     21773      1179  TIP3      H2             -0.9782346266       -9.4389273165       29.7064754703  TIP3      1019            0.0000000000
     21774      1180  TIP3      OH2           -14.6839876661      -10.5307983319       20.7726693428  TIP3      1020            0.0000000000
     21775      1180  TIP3      H1            -14.0490505743      -10.0092884166       21.2887835422  TIP3      1020            0.0000000000
     21776      1180  TIP3      H2            -14.9113918263       -9.8721302753       20.1059837632  TIP3      1020            0.0000000000
     21777      1181  TIP3      OH2            -0.7152599820        0.8380084760       30.3106951637  TIP3      1021            0.0000000000
     21778      1181  TIP3      H1             -0.8046838003        1.5871031182       29.6781587160  TIP3      1021            0.0000000000
     21779      1181  TIP3      H2              0.2641961356        0.8036329097       30.3377305198  TIP3      1021            0.0000000000
     21780      1182  TIP3      OH2           -12.9005720165      -15.1707734898       29.7833196407  TIP3      1022            0.0000000000
     21781      1182  TIP3      H1            -12.9475485835      -15.1507815228       28.7998330511  TIP3      1022            0.0000000000
     21782      1182  TIP3      H2            -13.1755559307      -16.0890246793       29.9595019474  TIP3      1022            0.0000000000
     21783      1183  TIP3      OH2           -14.5831961074       -1.6268324685       25.7145404847  TIP3      1023            0.0000000000
     21784      1183  TIP3      H1            -15.0015412801       -1.2182907621       26.4803528864  TIP3      1023            0.0000000000
     21785      1183  TIP3      H2            -14.6684408377       -0.9265829131       25.0256216018  TIP3      1023            0.0000000000
     21786      1184  TIP3      OH2           -15.2323274829        1.4761245128       37.2627373119  TIP3      1024            0.0000000000
     21787      1184  TIP3      H1            -14.8162751894        1.1452121974       38.0960609554  TIP3      1024            0.0000000000
     21788      1184  TIP3      H2            -15.7422782491        0.6890758262       36.9894508796  TIP3      1024            0.0000000000
     21789      1185  TIP3      OH2           -10.7377278189        0.1812490665       38.4057744877  TIP3      1025            0.0000000000
     21790      1185  TIP3      H1             -9.8049166990       -0.0247533834       38.5617645939  TIP3      1025            0.0000000000
     21791      1185  TIP3      H2            -10.7966911319       -0.2406197058       37.5248442143  TIP3      1025            0.0000000000
     21792      1186  TIP3      OH2            -6.3570150150       -0.1647576460       20.1130083526  TIP3      1026            0.0000000000
     21793      1186  TIP3      H1             -6.2537498161       -0.9926938001       20.6063708091  TIP3      1026            0.0000000000
     21794      1186  TIP3      H2             -5.5451088095       -0.1454709570       19.5881869806  TIP3      1026            0.0000000000
     21795      1187  TIP3      OH2            -3.8660672166       -1.1942406539       37.5117850159  TIP3      1027            0.0000000000
     21796      1187  TIP3      H1             -4.2005532292       -2.0340512290       37.8988493358  TIP3      1027            0.0000000000
     21797      1187  TIP3      H2             -2.9989283061       -1.1209461282       37.9524437916  TIP3      1027            0.0000000000
     21798      1188  TIP3      OH2            -1.0500581570       -0.3089256547       20.9744045455  TIP3      1028            0.0000000000
     21799      1188  TIP3      H1             -1.2518272555       -1.2114995759       21.2637806673  TIP3      1028            0.0000000000
     21800      1188  TIP3      H2             -1.4262256841       -0.4352414970       20.0738184770  TIP3      1028            0.0000000000
     21801      1189  TIP3      OH2           -15.0688246198       -5.5155552122       38.0339425451  TIP3      1029            0.0000000000
     21802      1189  TIP3      H1            -15.0914964933       -6.4401012973       37.7283936434  TIP3      1029            0.0000000000
     21803      1189  TIP3      H2            -15.9800835801       -5.4327012180       38.3745963536  TIP3      1029            0.0000000000
     21804      1190  TIP3      OH2            -8.2235709445       -4.7032522257       37.3856208917  TIP3      1030            0.0000000000
     21805      1190  TIP3      H1             -8.3829353400       -4.1922161751       36.5657707015  TIP3      1030            0.0000000000
     21806      1190  TIP3      H2             -8.2492671804       -5.6312976074       37.0365118481  TIP3      1030            0.0000000000
     21807      1191  TIP3      OH2            -5.9816674492       -3.5834042145       19.8578430508  TIP3      1031            0.0000000000
     21808      1191  TIP3      H1             -5.7060078248       -3.6408832064       20.7817112801  TIP3      1031            0.0000000000
     21809      1191  TIP3      H2             -5.1458823881       -3.6368844053       19.3826932064  TIP3      1031            0.0000000000
     21810      1192  TIP3      OH2            -3.2229308385       -5.1662891845       34.5688849129  TIP3      1032            0.0000000000
     21811      1192  TIP3      H1             -2.6684737149       -4.4510905927       34.9627154157  TIP3      1032            0.0000000000
     21812      1192  TIP3      H2             -4.1148139253       -4.7927257136       34.6881116189  TIP3      1032            0.0000000000
     21813      1193  TIP3      OH2           -14.0973425704       -8.0892074214       37.8269835863  TIP3      1033            0.0000000000
     21814      1193  TIP3      H1            -13.2818225486       -8.6072230788       37.7942300109  TIP3      1033            0.0000000000
     21815      1193  TIP3      H2            -13.9954101288       -7.6811235321       38.7257722022  TIP3      1033            0.0000000000
     21816      1194  TIP3      OH2            -9.1768111822       -8.9742658307       34.6930838334  TIP3      1034            0.0000000000
     21817      1194  TIP3      H1            -10.0460664672       -8.6042550959       34.4601001851  TIP3      1034            0.0000000000
     21818      1194  TIP3      H2             -8.5720986103       -8.5289868544       34.0515200847  TIP3      1034            0.0000000000
     21819      1195  TIP3      OH2            -4.8273283449       -5.9616214498       38.1580041643  TIP3      1035            0.0000000000
     21820      1195  TIP3      H1             -4.1454744020       -6.2999639657       37.5476211946  TIP3      1035            0.0000000000
     21821      1195  TIP3      H2             -5.0825247475       -6.7461708320       38.6770540502  TIP3      1035            0.0000000000
     21822      1196  TIP3      OH2             0.4295796610       -6.0283250695       19.9642074788  TIP3      1036            0.0000000000
     21823      1196  TIP3      H1              0.6538539065       -6.1427929698       19.0373961719  TIP3      1036            0.0000000000
     21824      1196  TIP3      H2              0.4292587573       -5.0592587766       20.0557958157  TIP3      1036            0.0000000000
     21825      1197  TIP3      OH2            -9.3587274103      -11.3506695405       35.8051439555  TIP3      1037            0.0000000000
     21826      1197  TIP3      H1             -9.4552463957      -11.9243060902       35.0212953059  TIP3      1037            0.0000000000
     21827      1197  TIP3      H2             -9.2390240091      -10.4803444254       35.3536851886  TIP3      1037            0.0000000000
     21828      1198  TIP3      OH2            -9.1500496028      -13.1479044675       33.5275730699  TIP3      1038            0.0000000000
     21829      1198  TIP3      H1             -8.7262332567      -12.5548918093       32.8586489070  TIP3      1038            0.0000000000
     21830      1198  TIP3      H2            -10.0891846408      -13.0353239992       33.2963876954  TIP3      1038            0.0000000000
     21831      1199  TIP3      OH2            -7.5372346500       -7.3308563149       33.4030390974  TIP3      1039            0.0000000000
     21832      1199  TIP3      H1             -6.8561608968       -7.3068364098       32.7279158618  TIP3      1039            0.0000000000
     21833      1199  TIP3      H2             -8.0974678410       -6.5829443301       33.1209448890  TIP3      1039            0.0000000000
     21834      1200  TIP3      OH2            -3.5029142796       -9.8710676146       38.9425134286  TIP3      1040            0.0000000000
     21835      1200  TIP3      H1             -3.4342482560      -10.5493458959       38.2589383564  TIP3      1040            0.0000000000
     21836      1200  TIP3      H2             -2.5689414281       -9.6331177104       39.0712909265  TIP3      1040            0.0000000000
     21837      1201  TIP3      OH2            -1.9936523669       -6.8219987382       36.9221737030  TIP3      1041            0.0000000000
     21838      1201  TIP3      H1             -2.2300391346       -6.0913326704       36.3204701276  TIP3      1041            0.0000000000
     21839      1201  TIP3      H2             -1.0145804108       -6.7639344462       36.8416272447  TIP3      1041            0.0000000000
     21840      1202  TIP3      OH2           -11.2502159466      -10.1419306381       37.8341792777  TIP3      1042            0.0000000000
     21841      1202  TIP3      H1            -12.0000700367      -10.7047019883       37.5345624561  TIP3      1042            0.0000000000
     21842      1202  TIP3      H2            -10.7024392473      -10.1783987550       37.0222327096  TIP3      1042            0.0000000000
     21843      1203  TIP3      OH2            -8.2932240974      -15.6121827383       33.6050449509  TIP3      1043            0.0000000000
     21844      1203  TIP3      H1             -8.6203201186      -14.6835040503       33.6803936157  TIP3      1043            0.0000000000
     21845      1203  TIP3      H2             -9.0518668691      -16.0121685719       33.1351387982  TIP3      1043            0.0000000000
     21846      1204  TIP3      OH2            -7.1236104949      -11.4380247629       37.7563502585  TIP3      1044            0.0000000000
     21847      1204  TIP3      H1             -7.6396660351      -11.5253983264       38.5705875996  TIP3      1044            0.0000000000
     21848      1204  TIP3      H2             -7.8592329553      -11.4833827985       37.1058591385  TIP3      1044            0.0000000000
     21849      1205  TIP3      OH2            -4.5459619193      -11.7557252047       36.6501059556  TIP3      1045            0.0000000000
     21850      1205  TIP3      H1             -5.4632900395      -11.9233355223       36.9543356083  TIP3      1045            0.0000000000
     21851      1205  TIP3      H2             -4.0409070474      -12.3090483643       37.2913640553  TIP3      1045            0.0000000000
     21852      1206  TIP3      OH2            -3.3962829131      -13.2332098203       38.5194400341  TIP3      1046            0.0000000000
     21853      1206  TIP3      H1             -3.0851355530      -14.1596631620       38.5761480361  TIP3      1046            0.0000000000
     21854      1206  TIP3      H2             -3.3501753820      -12.9321137937       39.4568661985  TIP3      1046            0.0000000000
     21855      1207  TIP3      OH2           -13.0372729177      -12.1710232661       37.5947860310  TIP3      1047            0.0000000000
     21856      1207  TIP3      H1            -13.2419636180      -12.9658322412       37.0597032425  TIP3      1047            0.0000000000
     21857      1207  TIP3      H2            -13.2503430482      -12.4874457938       38.5028287997  TIP3      1047            0.0000000000
     21858      1208  TIP3      OH2            -8.8917649919      -16.2389755620       36.2714100101  TIP3      1048            0.0000000000
     21859      1208  TIP3      H1             -8.4038725242      -17.0656286290       36.3528101952  TIP3      1048            0.0000000000
     21860      1208  TIP3      H2             -8.9525897733      -16.1808893903       35.2942298035  TIP3      1048            0.0000000000
     21861      1209  TIP3      OH2            -7.8945193463      -14.6573890091       38.0549672814  TIP3      1049            0.0000000000
     21862      1209  TIP3      H1             -8.2838428524      -15.3476738441       37.4600464047  TIP3      1049            0.0000000000
     21863      1209  TIP3      H2             -8.2885099351      -13.8711118115       37.6552632079  TIP3      1049            0.0000000000
     21864      1210  TIP3      OH2            -8.9816870000        2.3983164915       22.4509833800  TIP3      1050            0.0000000000
     21865      1210  TIP3      H1             -8.1996053323        2.9679389127       22.3702845038  TIP3      1050            0.0000000000
     21866      1210  TIP3      H2             -9.7173388657        3.0306559141       22.5138468932  TIP3      1050            0.0000000000
     21867      1211  TIP3      OH2           -14.2392186941       -3.1402394961       21.5919662480  TIP3      1051            0.0000000000
     21868      1211  TIP3      H1            -13.8125119389       -2.2887217193       21.4697294192  TIP3      1051            0.0000000000
     21869      1211  TIP3      H2            -14.8739265900       -3.1745459539       20.8753714426  TIP3      1051            0.0000000000
     21870      1212  TIP3      OH2           -16.3111421069        2.0844252429       25.9496251212  TIP3      1052            0.0000000000
     21871      1212  TIP3      H1            -17.0094567923        1.4238468713       25.7817268885  TIP3      1052            0.0000000000
     21872      1212  TIP3      H2            -15.9576099657        1.8331511393       26.8191680360  TIP3      1052            0.0000000000
     21873      1213  TIP3      OH2           -15.4191997796        0.3416233043       28.4387399223  TIP3      1053            0.0000000000
     21874      1213  TIP3      H1            -15.6528302291       -0.2381307476       29.1872885747  TIP3      1053            0.0000000000
     21875      1213  TIP3      H2            -15.1313525458        1.1618858827       28.8956164344  TIP3      1053            0.0000000000
     21876      1214  TIP3      OH2             1.9855509394        1.2433783192       30.5804360728  TIP3      1054            0.0000000000
     21877      1214  TIP3      H1              2.0316114116        0.9326057837       31.4962346340  TIP3      1054            0.0000000000
     21878      1214  TIP3      H2              2.3915668532        2.1091832494       30.6600409138  TIP3      1054            0.0000000000
     21879      1215  TIP3      OH2             1.6842564582        0.5659591479       33.6360863068  TIP3      1055            0.0000000000
     21880      1215  TIP3      H1              1.1511488860       -0.1866704182       33.2980214296  TIP3      1055            0.0000000000
     21881      1215  TIP3      H2              2.0429005518        0.1965803957       34.4640776144  TIP3      1055            0.0000000000
     21882      1216  TIP3      OH2             0.4305301227       -3.2123643036       38.9308356841  TIP3      1056            0.0000000000
     21883      1216  TIP3      H1             -0.4829392121       -3.3487031878       39.2600385646  TIP3      1056            0.0000000000
     21884      1216  TIP3      H2              0.6988697051       -2.4326266059       39.4600431853  TIP3      1056            0.0000000000
     21885      1217  TIP3      OH2             1.3833400822       -4.9672756042       24.0054730404  TIP3      1057            0.0000000000
     21886      1217  TIP3      H1              2.3515043207       -4.7643372317       24.1073744064  TIP3      1057            0.0000000000
     21887      1217  TIP3      H2              1.2632291777       -5.7431318360       24.5882971053  TIP3      1057            0.0000000000
     21888      1218  TIP3      OH2             1.7672082798       -7.0795139929       26.4506434990  TIP3      1058            0.0000000000
     21889      1218  TIP3      H1              0.9682428642       -7.6281195198       26.6336210699  TIP3      1058            0.0000000000
     21890      1218  TIP3      H2              2.1917389931       -7.0730372951       27.3324629271  TIP3      1058            0.0000000000
     21891      1219  TIP3      OH2             1.2982558891       -4.5958235417       30.5820332043  TIP3      1059            0.0000000000
     21892      1219  TIP3      H1              2.0101498328       -5.2529789019       30.7428688399  TIP3      1059            0.0000000000
     21893      1219  TIP3      H2              1.7113635372       -3.7841486826       30.9125764011  TIP3      1059            0.0000000000
     21894      1220  TIP3      OH2            -0.0240668624       -1.5183745563       32.9067494800  TIP3      1060            0.0000000000
     21895      1220  TIP3      H1             -0.5789312281       -1.4885812177       33.7074653536  TIP3      1060            0.0000000000
     21896      1220  TIP3      H2             -0.6593349505       -1.7958021916       32.2229842899  TIP3      1060            0.0000000000
     21897      1221  TIP3      OH2             1.9164902754       -7.3109840815       22.6021991438  TIP3      1061            0.0000000000
     21898      1221  TIP3      H1              1.3076022615       -7.1852878877       21.8573542300  TIP3      1061            0.0000000000
     21899      1221  TIP3      H2              1.9492406306       -6.4110864626       22.9662176549  TIP3      1061            0.0000000000
     21900      1222  TIP3      OH2             0.2891304554      -10.0181292046       20.9560258060  TIP3      1062            0.0000000000
     21901      1222  TIP3      H1             -0.4771826251       -9.7993083243       20.4159768567  TIP3      1062            0.0000000000
     21902      1222  TIP3      H2              0.1798422330      -10.9701844770       21.1086567721  TIP3      1062            0.0000000000
     21903      1223  TIP3      OH2            -0.3492336211       -8.6055433166       26.9728818782  TIP3      1063            0.0000000000
     21904      1223  TIP3      H1             -0.4541193505       -9.4695788309       26.5360146966  TIP3      1063            0.0000000000
     21905      1223  TIP3      H2             -0.7507422617       -8.7416554898       27.8629883802  TIP3      1063            0.0000000000
     21906      1224  TIP3      OH2           -15.7808474651       -7.1245594493       30.8602068879  TIP3      1064            0.0000000000
     21907      1224  TIP3      H1            -15.6753043148       -6.9921167095       29.9047210690  TIP3      1064            0.0000000000
     21908      1224  TIP3      H2            -14.9242745051       -6.7442422883       31.1396029054  TIP3      1064            0.0000000000
     21909      1225  TIP3      OH2             0.7716699680       -6.5781883342       36.2997267805  TIP3      1065            0.0000000000
     21910      1225  TIP3      H1              1.5964682875       -6.9319656608       36.6579608710  TIP3      1065            0.0000000000
     21911      1225  TIP3      H2              0.9386076965       -5.6180419504       36.2900480341  TIP3      1065            0.0000000000
     21912      1226  TIP3      OH2             1.8484559405       -9.2746297219       36.0692144057  TIP3      1066            0.0000000000
     21913      1226  TIP3      H1              1.3338545812       -8.7623676703       36.7258868723  TIP3      1066            0.0000000000
     21914      1226  TIP3      H2              2.4943953458       -9.6883019747       36.6915459673  TIP3      1066            0.0000000000
     21915      1227  TIP3      OH2            -0.6541446507      -10.5040025665       24.8885422403  TIP3      1067            0.0000000000
     21916      1227  TIP3      H1             -0.4084962782      -11.4211995821       25.1508054376  TIP3      1067            0.0000000000
     21917      1227  TIP3      H2              0.1682946043      -10.2507462097       24.4094940267  TIP3      1067            0.0000000000
     21918      1228  TIP3      OH2            -0.0214420462      -10.5138953137       30.8476959086  TIP3      1068            0.0000000000
     21919      1228  TIP3      H1              0.9516333736      -10.5417223910       30.7332854439  TIP3      1068            0.0000000000
     21920      1228  TIP3      H2             -0.0626076433      -10.4404792978       31.8188281356  TIP3      1068            0.0000000000
     21921      1229  TIP3      OH2             0.4359848866       -9.7977675972       33.4046774183  TIP3      1069            0.0000000000
     21922      1229  TIP3      H1             -0.4121371621       -9.5791992914       33.8498856285  TIP3      1069            0.0000000000
     21923      1229  TIP3      H2              0.8442444310       -8.9140847097       33.3310581315  TIP3      1069            0.0000000000
     21924      1230  TIP3      OH2           -15.5739731677      -11.5116080677       37.4348028349  TIP3      1070            0.0000000000
     21925      1230  TIP3      H1            -14.7351119098      -11.6359593847       37.9327061078  TIP3      1070            0.0000000000
     21926      1230  TIP3      H2            -15.8057663621      -12.4268343520       37.1729203035  TIP3      1070            0.0000000000
     21927      1231  TIP3      OH2             1.8497253708      -16.2386999970       38.1511895204  TIP3      1071            0.0000000000
     21928      1231  TIP3      H1              2.1081427039      -17.0935171526       38.5564975387  TIP3      1071            0.0000000000
     21929      1231  TIP3      H2              2.2225155050      -16.3114842451       37.2595805129  TIP3      1071            0.0000000000
     21930      1232  TIP3      OH2            -0.0148740682      -13.1040131529       25.2934090078  TIP3      1072            0.0000000000
     21931      1232  TIP3      H1              0.3434849534      -13.7119464107       25.9890251220  TIP3      1072            0.0000000000
     21932      1232  TIP3      H2             -0.7309232746      -13.6750734994       24.9362291648  TIP3      1072            0.0000000000
     21933      1233  TIP3      OH2           -14.4516602480      -12.9630690247       30.5569210182  TIP3      1073            0.0000000000
     21934      1233  TIP3      H1            -13.8899532546      -13.6665137409       30.1806355155  TIP3      1073            0.0000000000
     21935      1233  TIP3      H2            -13.9146839643      -12.1611065317       30.4043928002  TIP3      1073            0.0000000000
     21936      1234  TIP3      OH2           -16.6212463043       -9.9872498173       31.0305392687  TIP3      1074            0.0000000000
     21937      1234  TIP3      H1            -16.4712133396       -9.9383580303       30.0551441101  TIP3      1074            0.0000000000
     21938      1234  TIP3      H2            -15.7312319072       -9.7478520886       31.3575520755  TIP3      1074            0.0000000000
     21939      1235  TIP3      OH2             1.7695565860      -13.7100854325       36.0701412612  TIP3      1075            0.0000000000
     21940      1235  TIP3      H1              0.9567829049      -13.1866498766       35.8753684229  TIP3      1075            0.0000000000
     21941      1235  TIP3      H2              1.5512097623      -14.4863154408       35.5166575892  TIP3      1075            0.0000000000
     21942      1236  TIP3      OH2             1.6567768620      -13.8284351506       21.0849090364  TIP3      1076            0.0000000000
     21943      1236  TIP3      H1              1.8405436727      -14.7146815080       20.6694360015  TIP3      1076            0.0000000000
     21944      1236  TIP3      H2              2.0454185207      -13.3679677306       20.3178060456  TIP3      1076            0.0000000000
     21945      1237  TIP3      OH2           -15.6734581400      -13.6004303222       24.4435730406  TIP3      1077            0.0000000000
     21946      1237  TIP3      H1            -16.5795234834      -13.6350614348       24.8224398077  TIP3      1077            0.0000000000
     21947      1237  TIP3      H2            -15.9487362092      -13.4756511217       23.5292798821  TIP3      1077            0.0000000000
     21948      1238  TIP3      OH2            -0.5995977679        1.0895869262       26.8249413389  TIP3      1078            0.0000000000
     21949      1238  TIP3      H1             -0.2621914922        1.2483712754       25.9202162837  TIP3      1078            0.0000000000
     21950      1238  TIP3      H2             -0.5159491596        1.9505783282       27.2862687671  TIP3      1078            0.0000000000
     21951      1239  TIP3      OH2           -16.3708484017      -14.6410245637       32.5611583291  TIP3      1079            0.0000000000
     21952      1239  TIP3      H1            -17.2806877977      -14.5828275919       32.9004911526  TIP3      1079            0.0000000000
     21953      1239  TIP3      H2            -16.4024876445      -13.8777171540       31.9401525129  TIP3      1079            0.0000000000
     21954      1240  TIP3      OH2           -13.3578433988       -0.8890756149       37.1806670904  TIP3      1080            0.0000000000
     21955      1240  TIP3      H1            -13.7621179771       -0.2870762769       36.5279619144  TIP3      1080            0.0000000000
     21956      1240  TIP3      H2            -13.3988128656       -0.3994144638       38.0224286653  TIP3      1080            0.0000000000
     21957      1241  TIP3      OH2           -10.1993833070       -0.1971737309       33.9520762719  TIP3      1081            0.0000000000
     21958      1241  TIP3      H1            -10.5188826081        0.5531105194       33.4066602738  TIP3      1081            0.0000000000
     21959      1241  TIP3      H2             -9.2699316872       -0.2824275129       33.6464869633  TIP3      1081            0.0000000000
     21960      1242  TIP3      OH2            -6.5776997091        0.9921348426       36.2395636146  TIP3      1082            0.0000000000
     21961      1242  TIP3      H1             -6.4246661380        0.8540898465       37.1925766778  TIP3      1082            0.0000000000
     21962      1242  TIP3      H2             -5.6522535223        1.1220230433       35.9300681822  TIP3      1082            0.0000000000
     21963      1243  TIP3      OH2            -4.2346876065        2.6614349519       35.7714151792  TIP3      1083            0.0000000000
     21964      1243  TIP3      H1             -3.4196565888        2.7929816175       35.2260864915  TIP3      1083            0.0000000000
     21965      1243  TIP3      H2             -3.9200664059        2.8528077773       36.6754358748  TIP3      1083            0.0000000000
     21966      1244  TIP3      OH2             0.4714036516      -15.5696363799       34.6393195195  TIP3      1084            0.0000000000
     21967      1244  TIP3      H1              0.0356160294      -14.9968714452       33.9766509214  TIP3      1084            0.0000000000
     21968      1244  TIP3      H2              0.6647234358      -16.3692286591       34.1133207445  TIP3      1084            0.0000000000
     21969      1245  TIP3      OH2           -12.9681016697        2.8776102989       33.8861334181  TIP3      1085            0.0000000000
     21970      1245  TIP3      H1            -13.6322224951        3.4604236658       33.4761919245  TIP3      1085            0.0000000000
     21971      1245  TIP3      H2            -13.4868106945        2.2030922238       34.3503162884  TIP3      1085            0.0000000000
     21972      1246  TIP3      OH2           -10.8244454704        2.0794182509       32.4569362109  TIP3      1086            0.0000000000
     21973      1246  TIP3      H1            -11.7152423828        2.1993748120       32.8593249509  TIP3      1086            0.0000000000
     21974      1246  TIP3      H2            -10.8043006991        2.8390089059       31.8529710929  TIP3      1086            0.0000000000
     21975      1247  TIP3      OH2            -6.4957205253        1.7836869212       31.6356331913  TIP3      1087            0.0000000000
     21976      1247  TIP3      H1             -7.0459147206        2.3420664886       31.0591951471  TIP3      1087            0.0000000000
     21977      1247  TIP3      H2             -6.4271957414        2.3365363084       32.4404570503  TIP3      1087            0.0000000000
     21978      1248  TIP3      OH2            -4.3444693100        0.6779390670       33.0265610848  TIP3      1088            0.0000000000
     21979      1248  TIP3      H1             -4.8101856563        1.1982417477       32.3469034791  TIP3      1088            0.0000000000
     21980      1248  TIP3      H2             -3.4408859884        1.0614398928       32.9171862526  TIP3      1088            0.0000000000
     21981      1249  TIP3      OH2            -1.8067753885        1.6861252262       32.6636333504  TIP3      1089            0.0000000000
     21982      1249  TIP3      H1             -1.6191915742        2.5815875667       33.0425684950  TIP3      1089            0.0000000000
     21983      1249  TIP3      H2             -1.3389308762        1.7132048432       31.8046767402  TIP3      1089            0.0000000000
     21984      1250  TIP3      OH2           -13.4643722987        1.2394648988       30.2371209623  TIP3      1090            0.0000000000
     21985      1250  TIP3      H1            -14.0328778339        0.6158403378       30.7441629972  TIP3      1090            0.0000000000
     21986      1250  TIP3      H2            -12.8623921588        0.5999635266       29.7951477092  TIP3      1090            0.0000000000
     21987      1251  TIP3      OH2           -11.6105138019       -0.3923339265       29.0119764771  TIP3      1091            0.0000000000
     21988      1251  TIP3      H1            -11.6597126775       -1.3497243559       29.2755741267  TIP3      1091            0.0000000000
     21989      1251  TIP3      H2            -10.8499158160       -0.0815808337       29.5443710943  TIP3      1091            0.0000000000
     21990      1252  TIP3      OH2            -9.2973482090       -0.0351915948       30.3628535880  TIP3      1092            0.0000000000
     21991      1252  TIP3      H1             -8.9871949192       -0.9613791388       30.2432494289  TIP3      1092            0.0000000000
     21992      1252  TIP3      H2             -9.0980125393        0.1082946113       31.2988029925  TIP3      1092            0.0000000000
     21993      1253  TIP3      OH2            -5.4515139646      -13.8458913220       29.3146231369  TIP3      1093            0.0000000000
     21994      1253  TIP3      H1             -6.3398951715      -14.1524582715       29.0570365067  TIP3      1093            0.0000000000
     21995      1253  TIP3      H2             -4.9288270828      -14.6480824209       29.1737883229  TIP3      1093            0.0000000000
     21996      1254  TIP3      OH2            -0.6730290725      -16.2754320377       28.7946667117  TIP3      1094            0.0000000000
     21997      1254  TIP3      H1             -0.0110421449      -15.5725251820       28.9945503311  TIP3      1094            0.0000000000
     21998      1254  TIP3      H2             -1.3365502592      -15.6752724459       28.3815044033  TIP3      1094            0.0000000000
     21999      1255  TIP3      OH2             1.0728463509      -14.7650364043       27.1421201189  TIP3      1095            0.0000000000
     22000      1255  TIP3      H1              1.9473288359      -14.8993512599       26.7340553545  TIP3      1095            0.0000000000
     22001      1255  TIP3      H2              1.2756253469      -14.1714270109       27.9022595481  TIP3      1095            0.0000000000
     22002      1256  TIP3      OH2           -13.2373559368      -15.6866969581       27.0910374302  TIP3      1096            0.0000000000
     22003      1256  TIP3      H1            -14.0681512619      -15.4353377451       26.6519071323  TIP3      1096            0.0000000000
     22004      1256  TIP3      H2            -13.0063026169      -16.5389951300       26.6619498579  TIP3      1096            0.0000000000
     22005      1257  TIP3      OH2            -9.1544574856      -15.3995163508       26.5959794571  TIP3      1097            0.0000000000
     22006      1257  TIP3      H1             -8.3870746133      -15.0130004979       26.1447191224  TIP3      1097            0.0000000000
     22007      1257  TIP3      H2             -8.7590694893      -15.6806763654       27.4312687712  TIP3      1097            0.0000000000
     22008      1258  TIP3      OH2            -2.9892601221      -15.4640607357       27.7426365471  TIP3      1098            0.0000000000
     22009      1258  TIP3      H1             -3.3668632451      -15.7101449105       26.8813104739  TIP3      1098            0.0000000000
     22010      1258  TIP3      H2             -3.1169397266      -16.2860050012       28.2732274958  TIP3      1098            0.0000000000
     22011      1259  TIP3      OH2            -1.9045674506      -14.7428165026       23.9178149179  TIP3      1099            0.0000000000
     22012      1259  TIP3      H1             -2.7060510250      -14.1750959461       23.8188358564  TIP3      1099            0.0000000000
     22013      1259  TIP3      H2             -2.3576617735      -15.5955891862       24.0820351866  TIP3      1099            0.0000000000
     22014      1260  TIP3      OH2           -14.8502443709        0.2332615348       23.7783140888  TIP3      1100            0.0000000000
     22015      1260  TIP3      H1            -15.6267442074        0.4098841101       23.2037977087  TIP3      1100            0.0000000000
     22016      1260  TIP3      H2            -14.4562029947        1.1178984723       23.8265947173  TIP3      1100            0.0000000000
     22017      1261  TIP3      OH2            -8.2701206966      -13.2994055044       23.6537906187  TIP3      1101            0.0000000000
     22018      1261  TIP3      H1             -7.5846851820      -13.9215235824       23.9025447748  TIP3      1101            0.0000000000
     22019      1261  TIP3      H2             -7.8566039495      -12.8878842563       22.8747520556  TIP3      1101            0.0000000000
     22020      1262  TIP3      OH2            -5.9340631626        2.1226404554       21.6728699727  TIP3      1102            0.0000000000
     22021      1262  TIP3      H1             -4.9718689147        1.9606773650       21.5560152060  TIP3      1102            0.0000000000
     22022      1262  TIP3      H2             -6.2717470188        1.4377718185       21.0602235195  TIP3      1102            0.0000000000
     22023      1263  TIP3      OH2             0.8922622216        0.8496333824       24.6377283746  TIP3      1103            0.0000000000
     22024      1263  TIP3      H1              0.6065979724        0.0286112918       24.1746419995  TIP3      1103            0.0000000000
     22025      1263  TIP3      H2              0.6890761654        1.5147909106       23.9414037109  TIP3      1103            0.0000000000
     22026      1264  TIP3      OH2           -13.6573379789      -15.0582722051       36.4338179091  TIP3      1104            0.0000000000
     22027      1264  TIP3      H1            -13.7483515405      -16.0302675656       36.5074123184  TIP3      1104            0.0000000000
     22028      1264  TIP3      H2            -12.7466971390      -14.9562770174       36.7775551314  TIP3      1104            0.0000000000
     22029      1265  TIP3      OH2           -11.3183618142      -15.0710757309       38.1375224455  TIP3      1105            0.0000000000
     22030      1265  TIP3      H1            -10.6906551196      -15.6719005692       37.6965067557  TIP3      1105            0.0000000000
     22031      1265  TIP3      H2            -11.9858394755      -15.7206651948       38.4712421191  TIP3      1105            0.0000000000
     22032      1266  TIP3      OH2            -3.2659102149      -15.9940759278       38.3594449202  TIP3      1106            0.0000000000
     22033      1266  TIP3      H1             -3.8284201298      -16.7625849049       38.1600985755  TIP3      1106            0.0000000000
     22034      1266  TIP3      H2             -2.6790902247      -15.9752075930       37.5725093758  TIP3      1106            0.0000000000
     22035      1267  TIP3      OH2            -0.1880101592       -0.3438899296       36.8425866779  TIP3      1107            0.0000000000
     22036      1267  TIP3      H1             -1.0626411099       -0.3154348346       36.3955184204  TIP3      1107            0.0000000000
     22037      1267  TIP3      H2              0.0903490345        0.5629008818       36.6763305903  TIP3      1107            0.0000000000
     22038      1268  TIP3      OH2            14.6950666426       -6.4332770786       26.9296583586  TIP3      1108            0.0000000000
     22039      1268  TIP3      H1             14.8202299453       -5.5338312482       27.2902518385  TIP3      1108            0.0000000000
     22040      1268  TIP3      H2             13.9873125502       -6.3154306519       26.2763241748  TIP3      1108            0.0000000000
     22041      1269  TIP3      OH2            13.4736121237       -7.5934392515       30.2296527256  TIP3      1109            0.0000000000
     22042      1269  TIP3      H1             13.4611635950       -7.8891879242       31.1642893279  TIP3      1109            0.0000000000
     22043      1269  TIP3      H2             12.7009454907       -8.0320204538       29.8358140605  TIP3      1109            0.0000000000
     22044      1270  TIP3      OH2             5.6411795454       -7.4563745002       31.5052524167  TIP3      1110            0.0000000000
     22045      1270  TIP3      H1              5.4478647674       -7.7748947232       32.4049894661  TIP3      1110            0.0000000000
     22046      1270  TIP3      H2              6.2210569671       -6.7244772909       31.7671522791  TIP3      1110            0.0000000000
     22047      1271  TIP3      OH2            16.1428242876       -3.8889477522       28.3378153395  TIP3      1111            0.0000000000
     22048      1271  TIP3      H1             17.0042778448       -4.2881728000       28.5394382862  TIP3      1111            0.0000000000
     22049      1271  TIP3      H2             15.8915413409       -3.5294631814       29.1954841503  TIP3      1111            0.0000000000
     22050      1272  TIP3      OH2             6.9408909835       -2.6108275886       30.0747022868  TIP3      1112            0.0000000000
     22051      1272  TIP3      H1              6.5172999001       -3.4827454530       29.9942930645  TIP3      1112            0.0000000000
     22052      1272  TIP3      H2              7.8370097610       -2.8551933708       29.7512898257  TIP3      1112            0.0000000000
     22053      1273  TIP3      OH2             3.1919193127       -9.8161046231       25.9015442509  TIP3      1113            0.0000000000
     22054      1273  TIP3      H1              2.6748120405       -9.0638798586       26.2075104957  TIP3      1113            0.0000000000
     22055      1273  TIP3      H2              2.7179149689      -10.0073949247       25.0653196152  TIP3      1113            0.0000000000
     22056      1274  TIP3      OH2             3.9519295864       -7.2234766129       28.4322825265  TIP3      1114            0.0000000000
     22057      1274  TIP3      H1              4.4199513989       -8.0349376468       28.7434505749  TIP3      1114            0.0000000000
     22058      1274  TIP3      H2              4.3486121300       -7.0450178888       27.5674091152  TIP3      1114            0.0000000000
     22059      1275  TIP3      OH2            14.3083966006        0.5905577752       28.5709396934  TIP3      1115            0.0000000000
     22060      1275  TIP3      H1             15.1778034468        0.2619747320       28.2606895192  TIP3      1115            0.0000000000
     22061      1275  TIP3      H2             14.1852585943        0.0551058616       29.3630959728  TIP3      1115            0.0000000000
     22062      1276  TIP3      OH2            13.0752589407       -4.9201178792       29.8353717685  TIP3      1116            0.0000000000
     22063      1276  TIP3      H1             12.9530317095       -5.8905819976       29.8753069313  TIP3      1116            0.0000000000
     22064      1276  TIP3      H2             12.3782400918       -4.5756918819       30.4417087639  TIP3      1116            0.0000000000
     22065      1277  TIP3      OH2            20.4034494843      -13.0532637135       30.7169013839  TIP3      1117            0.0000000000
     22066      1277  TIP3      H1             20.3622352913      -12.3328460966       31.3610970833  TIP3      1117            0.0000000000
     22067      1277  TIP3      H2             21.1792612770      -12.8372668856       30.1605723866  TIP3      1117            0.0000000000
     22068      1278  TIP3      OH2            15.0987778043      -10.2942733063       31.2119401227  TIP3      1118            0.0000000000
     22069      1278  TIP3      H1             14.4653321731      -11.0373437339       31.1687013900  TIP3      1118            0.0000000000
     22070      1278  TIP3      H2             14.9663968731       -9.8886612717       30.3240280314  TIP3      1118            0.0000000000
     22071      1279  TIP3      OH2             7.7707998334      -12.3140092232       28.0333616734  TIP3      1119            0.0000000000
     22072      1279  TIP3      H1              7.9644003216      -11.5076307835       27.5276648703  TIP3      1119            0.0000000000
     22073      1279  TIP3      H2              7.4513858666      -12.9067481807       27.3207898358  TIP3      1119            0.0000000000
     22074      1280  TIP3      OH2            14.9502496713      -11.9328010158       26.8093572028  TIP3      1120            0.0000000000
     22075      1280  TIP3      H1             15.5373610091      -12.1654938406       27.5648628722  TIP3      1120            0.0000000000
     22076      1280  TIP3      H2             15.5227080517      -11.3549150635       26.2819768526  TIP3      1120            0.0000000000
     22077      1281  TIP3      OH2             4.8103125418       -9.7167697010       29.0513956578  TIP3      1121            0.0000000000
     22078      1281  TIP3      H1              5.6081169270      -10.1634686059       29.3781529416  TIP3      1121            0.0000000000
     22079      1281  TIP3      H2              4.8034377033      -10.0283833337       28.1298789188  TIP3      1121            0.0000000000
     22080      1282  TIP3      OH2             9.1424363727       -8.1900781688       28.3782321851  TIP3      1122            0.0000000000
     22081      1282  TIP3      H1             10.0461888192       -8.4683309126       28.6611104802  TIP3      1122            0.0000000000
     22082      1282  TIP3      H2              8.8193771845       -8.9944399144       27.9477756235  TIP3      1122            0.0000000000
     22083      1283  TIP3      OH2            20.4121853962      -11.8883510248       33.4955033245  TIP3      1123            0.0000000000
     22084      1283  TIP3      H1             19.8970485197      -11.0745403718       33.3088491175  TIP3      1123            0.0000000000
     22085      1283  TIP3      H2             20.3259644208      -11.9028854093       34.4738302538  TIP3      1123            0.0000000000
     22086      1284  TIP3      OH2             6.8562945081      -13.2307973983       32.5679582759  TIP3      1124            0.0000000000
     22087      1284  TIP3      H1              6.6187181904      -12.7189176510       31.7760373207  TIP3      1124            0.0000000000
     22088      1284  TIP3      H2              6.1232256153      -12.9719690574       33.1776663822  TIP3      1124            0.0000000000
     22089      1285  TIP3      OH2            14.0035672040       -3.8464903103       25.5271029185  TIP3      1125            0.0000000000
     22090      1285  TIP3      H1             13.1862718633       -3.7966393031       25.0069673429  TIP3      1125            0.0000000000
     22091      1285  TIP3      H2             13.9888829037       -2.9527022395       25.9172839495  TIP3      1125            0.0000000000
     22092      1286  TIP3      OH2             8.9547058729       -5.7211742465       32.7480616804  TIP3      1126            0.0000000000
     22093      1286  TIP3      H1              8.3264478612       -5.0667349100       33.1232833020  TIP3      1126            0.0000000000
     22094      1286  TIP3      H2              9.6576453014       -5.0845472511       32.4570584268  TIP3      1126            0.0000000000
     22095      1287  TIP3      OH2            16.9451648471      -12.8757895973       28.6233321866  TIP3      1127            0.0000000000
     22096      1287  TIP3      H1             16.7109648142      -13.7551874651       28.2662288131  TIP3      1127            0.0000000000
     22097      1287  TIP3      H2             17.9048500338      -12.9184729629       28.6671360801  TIP3      1127            0.0000000000
     22098      1288  TIP3      OH2             6.6200666399      -11.4175012733       30.2352238105  TIP3      1128            0.0000000000
     22099      1288  TIP3      H1              7.3541000980      -10.9522929766       30.7108273033  TIP3      1128            0.0000000000
     22100      1288  TIP3      H2              7.0817334137      -11.7246765424       29.4173382504  TIP3      1128            0.0000000000
     22101      1289  TIP3      OH2             7.7825890129       -3.2277117449       33.5568649984  TIP3      1129            0.0000000000
     22102      1289  TIP3      H1              7.5412655764       -2.7511403337       32.7498540992  TIP3      1129            0.0000000000
     22103      1289  TIP3      H2              6.8957171065       -3.3844993512       33.9581714884  TIP3      1129            0.0000000000
     22104      1290  TIP3      OH2             3.8909790022       -4.2042440664       23.8943125970  TIP3      1130            0.0000000000
     22105      1290  TIP3      H1              3.8911228229       -3.8799486963       22.9551304056  TIP3      1130            0.0000000000
     22106      1290  TIP3      H2              4.1964244894       -3.3798662245       24.3423654688  TIP3      1130            0.0000000000
     22107      1291  TIP3      OH2            17.9501906013       -1.6594827488       31.0926076377  TIP3      1131            0.0000000000
     22108      1291  TIP3      H1             16.9752309734       -1.7256062156       31.0935809356  TIP3      1131            0.0000000000
     22109      1291  TIP3      H2             18.0449312345       -0.8567589623       30.5366145910  TIP3      1131            0.0000000000
     22110      1292  TIP3      OH2            18.8049037669      -14.4228133116       32.7753529432  TIP3      1132            0.0000000000
     22111      1292  TIP3      H1             18.2062541983      -15.1807263735       32.6153184966  TIP3      1132            0.0000000000
     22112      1292  TIP3      H2             19.3548475354      -14.3982182943       31.9654687170  TIP3      1132            0.0000000000
     22113      1293  TIP3      OH2            10.0163214343      -15.5064987180       29.3108425958  TIP3      1133            0.0000000000
     22114      1293  TIP3      H1             10.0297929112      -16.3764611362       29.7458576534  TIP3      1133            0.0000000000
     22115      1293  TIP3      H2              9.2343228262      -15.1021120220       29.7651492997  TIP3      1133            0.0000000000
     22116      1294  TIP3      OH2            16.3451491683       -0.6124481580       27.3181319636  TIP3      1134            0.0000000000
     22117      1294  TIP3      H1             16.6428373370       -1.4100048572       26.8262986251  TIP3      1134            0.0000000000
     22118      1294  TIP3      H2             17.0689222869        0.0304220655       27.1229589825  TIP3      1134            0.0000000000
     22119      1295  TIP3      OH2            17.1768529580       -2.8224946284       26.0029457003  TIP3      1135            0.0000000000
     22120      1295  TIP3      H1             16.4032378400       -3.3102089214       25.6803167943  TIP3      1135            0.0000000000
     22121      1295  TIP3      H2             17.1879841734       -3.0979103987       26.9493040659  TIP3      1135            0.0000000000
     22122      1296  TIP3      OH2            18.4270959808       -3.8719501218       34.9227656243  TIP3      1136            0.0000000000
     22123      1296  TIP3      H1             18.6689059861       -4.5588232367       34.2599276608  TIP3      1136            0.0000000000
     22124      1296  TIP3      H2             18.4019156534       -3.0765082866       34.3588372063  TIP3      1136            0.0000000000
     22125      1297  TIP3      OH2            13.2265294168       -6.9542050411       24.1851389830  TIP3      1137            0.0000000000
     22126      1297  TIP3      H1             12.8099951003       -6.0697651506       24.1460264866  TIP3      1137            0.0000000000
     22127      1297  TIP3      H2             13.9811152329       -6.8674704629       23.5809651144  TIP3      1137            0.0000000000
     22128      1298  TIP3      OH2            13.4235661884       -8.2443374129       21.3584395289  TIP3      1138            0.0000000000
     22129      1298  TIP3      H1             14.1376728912       -7.7827750931       21.8371718282  TIP3      1138            0.0000000000
     22130      1298  TIP3      H2             13.5048465865       -9.1463783651       21.6900810913  TIP3      1138            0.0000000000
     22131      1299  TIP3      OH2            20.1578104827       -7.3996971157       32.6337064831  TIP3      1139            0.0000000000
     22132      1299  TIP3      H1             19.7072740386       -6.5713506990       32.9093962590  TIP3      1139            0.0000000000
     22133      1299  TIP3      H2             20.6487498851       -7.0792920172       31.8425651169  TIP3      1139            0.0000000000
     22134      1300  TIP3      OH2            16.7979145708       -6.9267259378       25.2789630799  TIP3      1140            0.0000000000
     22135      1300  TIP3      H1             16.1750257408       -6.6231159262       25.9777751872  TIP3      1140            0.0000000000
     22136      1300  TIP3      H2             17.4351884345       -7.4464063976       25.8193556917  TIP3      1140            0.0000000000
     22137      1301  TIP3      OH2            16.7091110609       -8.2491886581       34.1274876271  TIP3      1141            0.0000000000
     22138      1301  TIP3      H1             16.6359872214       -7.4865321909       34.7213654994  TIP3      1141            0.0000000000
     22139      1301  TIP3      H2             16.0896461121       -7.9882271777       33.4271364605  TIP3      1141            0.0000000000
     22140      1302  TIP3      OH2             8.6066958915       -6.0242872627       27.0429091685  TIP3      1142            0.0000000000
     22141      1302  TIP3      H1              8.0626446576       -6.4165408334       26.3348197578  TIP3      1142            0.0000000000
     22142      1302  TIP3      H2              8.8877369992       -6.8346023843       27.5375419128  TIP3      1142            0.0000000000
     22143      1303  TIP3      OH2             9.5072850087       -3.3367536709       29.3238277283  TIP3      1143            0.0000000000
     22144      1303  TIP3      H1              9.5126899897       -4.2708671292       29.0755949010  TIP3      1143            0.0000000000
     22145      1303  TIP3      H2              9.9980870834       -3.3588472648       30.1835204976  TIP3      1143            0.0000000000
     22146      1304  TIP3      OH2             8.3819816055       -7.6912159377       30.8518770441  TIP3      1144            0.0000000000
     22147      1304  TIP3      H1              8.6460681924       -7.6236617228       29.9096278925  TIP3      1144            0.0000000000
     22148      1304  TIP3      H2              8.8620597392       -6.9555691361       31.2875377943  TIP3      1144            0.0000000000
     22149      1305  TIP3      OH2            15.0516029122       -1.8791387408       31.4159780013  TIP3      1145            0.0000000000
     22150      1305  TIP3      H1             14.4594636968       -1.4043733505       32.0265109421  TIP3      1145            0.0000000000
     22151      1305  TIP3      H2             14.8598727829       -2.7947023391       31.7096651010  TIP3      1145            0.0000000000
     22152      1306  TIP3      OH2             9.8120427643       -2.9892795792       35.3319582493  TIP3      1146            0.0000000000
     22153      1306  TIP3      H1              9.1354373950       -2.5348504930       35.8724322033  TIP3      1146            0.0000000000
     22154      1306  TIP3      H2              9.2894765433       -3.1787505139       34.5156076152  TIP3      1146            0.0000000000
     22155      1307  TIP3      OH2            15.5930974746       -7.3558705327       22.9161216754  TIP3      1147            0.0000000000
     22156      1307  TIP3      H1             15.8424352531       -7.3831543392       23.8756289208  TIP3      1147            0.0000000000
     22157      1307  TIP3      H2             16.4712769326       -7.1489155570       22.5732348302  TIP3      1147            0.0000000000
     22158      1308  TIP3      OH2             6.0599954658       -6.9004850505       34.1964825528  TIP3      1148            0.0000000000
     22159      1308  TIP3      H1              6.2713658864       -6.3492425311       34.9642025639  TIP3      1148            0.0000000000
     22160      1308  TIP3      H2              5.2379102234       -7.2929824522       34.5883943318  TIP3      1148            0.0000000000
     22161      1309  TIP3      OH2            13.0140807958       -1.2276663208       26.0505510297  TIP3      1149            0.0000000000
     22162      1309  TIP3      H1             13.7020490006       -0.7759993885       26.5705175002  TIP3      1149            0.0000000000
     22163      1309  TIP3      H2             12.9784095475       -0.6797627883       25.2474848234  TIP3      1149            0.0000000000
     22164      1310  TIP3      OH2             7.9852259614       -1.3247848269       36.4625253892  TIP3      1150            0.0000000000
     22165      1310  TIP3      H1              7.6708950674       -1.3723458133       35.5324026537  TIP3      1150            0.0000000000
     22166      1310  TIP3      H2              7.1040200093       -1.5029999709       36.8799676781  TIP3      1150            0.0000000000
     22167      1311  TIP3      OH2            19.0286104264      -15.9370194738       22.1989359046  TIP3      1151            0.0000000000
     22168      1311  TIP3      H1             18.3522436154      -15.8958711255       22.8928990342  TIP3      1151            0.0000000000
     22169      1311  TIP3      H2             19.4512922414      -15.0667206934       22.2656294458  TIP3      1151            0.0000000000
     22170      1312  TIP3      OH2             7.2976022881       -7.6027341172       24.6259265382  TIP3      1152            0.0000000000
     22171      1312  TIP3      H1              7.0445179670       -6.7246699428       24.2265718342  TIP3      1152            0.0000000000
     22172      1312  TIP3      H2              6.5418204120       -8.1233096674       24.3406854101  TIP3      1152            0.0000000000
     22173      1313  TIP3      OH2            20.3706251843       -1.4040810851       21.2974167252  TIP3      1153            0.0000000000
     22174      1313  TIP3      H1             19.8450430608       -0.8386498604       20.7089253022  TIP3      1153            0.0000000000
     22175      1313  TIP3      H2             20.5629516030       -2.1279395427       20.6854202927  TIP3      1153            0.0000000000
     22176      1314  TIP3      OH2             3.6085653305       -4.7705745629       34.0069403859  TIP3      1154            0.0000000000
     22177      1314  TIP3      H1              2.8476926820       -4.6510691889       33.4029376015  TIP3      1154            0.0000000000
     22178      1314  TIP3      H2              3.8586207768       -5.6880194178       33.8197409313  TIP3      1154            0.0000000000
     22179      1315  TIP3      OH2             3.4427758471       -1.9055180707       30.1262023406  TIP3      1155            0.0000000000
     22180      1315  TIP3      H1              4.3950743728       -2.0247586078       30.0398848773  TIP3      1155            0.0000000000
     22181      1315  TIP3      H2              3.4580927358       -1.1770712632       30.7657846326  TIP3      1155            0.0000000000
     22182      1316  TIP3      OH2            21.0022421147       -1.1564067783       36.2326189075  TIP3      1156            0.0000000000
     22183      1316  TIP3      H1             21.2350970913       -2.0460518174       36.5744322305  TIP3      1156            0.0000000000
     22184      1316  TIP3      H2             20.0362663869       -1.2700453794       36.2172178151  TIP3      1156            0.0000000000
     22185      1317  TIP3      OH2            12.4699175464       -2.0936218073       35.2354634133  TIP3      1157            0.0000000000
     22186      1317  TIP3      H1             12.4327145684       -1.2157750980       35.6485624093  TIP3      1157            0.0000000000
     22187      1317  TIP3      H2             11.5322467409       -2.3788926829       35.2542690381  TIP3      1157            0.0000000000
     22188      1318  TIP3      OH2            12.8882695420        1.9196200294       24.6177861763  TIP3      1158            0.0000000000
     22189      1318  TIP3      H1             12.9764088717        2.3225107327       23.7439930256  TIP3      1158            0.0000000000
     22190      1318  TIP3      H2             12.7811679813        2.7368528982       25.1554312669  TIP3      1158            0.0000000000
     22191      1319  TIP3      OH2             6.4859598546        0.3866738817       26.7096254221  TIP3      1159            0.0000000000
     22192      1319  TIP3      H1              6.8837000746        0.3033072931       27.6119124790  TIP3      1159            0.0000000000
     22193      1319  TIP3      H2              5.6012786280        0.0403932255       26.9323727632  TIP3      1159            0.0000000000
     22194      1320  TIP3      OH2            15.7698267441        0.2267786245       21.7969432086  TIP3      1160            0.0000000000
     22195      1320  TIP3      H1             14.9966713043        0.6742253201       21.4073470662  TIP3      1160            0.0000000000
     22196      1320  TIP3      H2             15.7938955553        0.6263037292       22.6838404055  TIP3      1160            0.0000000000
     22197      1321  TIP3      OH2            15.5776530535        1.1600054986       24.5695206807  TIP3      1161            0.0000000000
     22198      1321  TIP3      H1             14.6546654003        1.4304305510       24.7340507116  TIP3      1161            0.0000000000
     22199      1321  TIP3      H2             15.9038298257        0.8838423518       25.4516476772  TIP3      1161            0.0000000000
     22200      1322  TIP3      OH2            18.3886722071      -10.0093458428       36.6616448717  TIP3      1162            0.0000000000
     22201      1322  TIP3      H1             17.7464909450      -10.0361778000       35.9436260065  TIP3      1162            0.0000000000
     22202      1322  TIP3      H2             18.3412803175      -10.8883983202       37.0779880183  TIP3      1162            0.0000000000
     22203      1323  TIP3      OH2             5.4564449514       -3.1430849221       34.7458207671  TIP3      1163            0.0000000000
     22204      1323  TIP3      H1              5.6341359168       -3.6726371849       35.5563834016  TIP3      1163            0.0000000000
     22205      1323  TIP3      H2              4.6495724784       -3.6115475185       34.4382245117  TIP3      1163            0.0000000000
     22206      1324  TIP3      OH2             7.8324894878      -14.7904280020       30.6373975503  TIP3      1164            0.0000000000
     22207      1324  TIP3      H1              6.8770777056      -14.9333291555       30.4675789886  TIP3      1164            0.0000000000
     22208      1324  TIP3      H2              7.7657276642      -14.1402278235       31.3613643119  TIP3      1164            0.0000000000
     22209      1325  TIP3      OH2            12.9369272408      -15.2497035987       33.8099271984  TIP3      1165            0.0000000000
     22210      1325  TIP3      H1             13.3480088079      -15.7620174245       34.5561458348  TIP3      1165            0.0000000000
     22211      1325  TIP3      H2             11.9863094153      -15.2463708300       34.0327123785  TIP3      1165            0.0000000000
     22212      1326  TIP3      OH2            16.0985527794      -11.1906230824       34.4581513088  TIP3      1166            0.0000000000
     22213      1326  TIP3      H1             15.7548774763      -11.6488364961       35.2587732485  TIP3      1166            0.0000000000
     22214      1326  TIP3      H2             15.6582672304      -10.3294242724       34.5745164440  TIP3      1166            0.0000000000
     22215      1327  TIP3      OH2            12.9818895146      -12.6110627630       21.5742990753  TIP3      1167            0.0000000000
     22216      1327  TIP3      H1             12.2679811992      -12.9557300674       22.1267052527  TIP3      1167            0.0000000000
     22217      1327  TIP3      H2             13.0063114469      -13.2428694692       20.8456409471  TIP3      1167            0.0000000000
     22218      1328  TIP3      OH2             8.3179317638      -10.1949137255       31.8611926985  TIP3      1168            0.0000000000
     22219      1328  TIP3      H1              8.0395815302       -9.9007073065       32.7574377796  TIP3      1168            0.0000000000
     22220      1328  TIP3      H2              8.2559740382       -9.3174207529       31.4102040565  TIP3      1168            0.0000000000
     22221      1329  TIP3      OH2             8.3619987994       -9.9901885105       26.3438635896  TIP3      1169            0.0000000000
     22222      1329  TIP3      H1              7.3843390615       -9.9585904969       26.4099348624  TIP3      1169            0.0000000000
     22223      1329  TIP3      H2              8.5288498080       -9.3201689504       25.6538602170  TIP3      1169            0.0000000000
     22224      1330  TIP3      OH2            13.5005527529       -9.1886600191       25.6389330859  TIP3      1170            0.0000000000
     22225      1330  TIP3      H1             13.0884251432       -8.3781481672       25.2565248453  TIP3      1170            0.0000000000
     22226      1330  TIP3      H2             14.3708303383       -9.1440534768       25.2274370780  TIP3      1170            0.0000000000
     22227      1331  TIP3      OH2            12.9095855446       -9.1637730030       37.1328779882  TIP3      1171            0.0000000000
     22228      1331  TIP3      H1             12.4713983432       -9.8805460068       37.6512923870  TIP3      1171            0.0000000000
     22229      1331  TIP3      H2             13.7965474392       -9.0950320026       37.5290554521  TIP3      1171            0.0000000000
     22230      1332  TIP3      OH2            14.9567608989       -9.3683514453       28.5285253349  TIP3      1172            0.0000000000
     22231      1332  TIP3      H1             14.8227545466       -8.4761879912       28.1437070998  TIP3      1172            0.0000000000
     22232      1332  TIP3      H2             14.7134609880       -9.9262053217       27.7824737558  TIP3      1172            0.0000000000
     22233      1333  TIP3      OH2             5.7396607562       -9.9328558121       33.4445177885  TIP3      1173            0.0000000000
     22234      1333  TIP3      H1              6.4163311148       -9.3276773845       33.8038325952  TIP3      1173            0.0000000000
     22235      1333  TIP3      H2              5.4182334169      -10.3579186569       34.2437634799  TIP3      1173            0.0000000000
     22236      1334  TIP3      OH2             8.4014406051      -11.8527393649       20.4413895980  TIP3      1174            0.0000000000
     22237      1334  TIP3      H1              8.2799618017      -12.5310508401       21.1200002116  TIP3      1174            0.0000000000
     22238      1334  TIP3      H2              7.6142966359      -12.0247274843       19.8669403649  TIP3      1174            0.0000000000
     22239      1335  TIP3      OH2             2.6808822971      -12.5210716474       27.4207188793  TIP3      1175            0.0000000000
     22240      1335  TIP3      H1              3.2950914672      -12.9393147029       28.0482334898  TIP3      1175            0.0000000000
     22241      1335  TIP3      H2              2.8367480797      -12.9530106135       26.5642675566  TIP3      1175            0.0000000000
     22242      1336  TIP3      OH2            13.9702201744       -8.4716487157       32.8976473906  TIP3      1176            0.0000000000
     22243      1336  TIP3      H1             14.6239264965       -9.0957040531       32.5303652102  TIP3      1176            0.0000000000
     22244      1336  TIP3      H2             13.4027972907       -9.0418427002       33.4785452403  TIP3      1176            0.0000000000
     22245      1337  TIP3      OH2            11.2063388879      -12.2737359668       28.1023622912  TIP3      1177            0.0000000000
     22246      1337  TIP3      H1             11.3009926125      -11.8664733484       28.9708475719  TIP3      1177            0.0000000000
     22247      1337  TIP3      H2             11.7468762970      -13.0841207286       28.2526261993  TIP3      1177            0.0000000000
     22248      1338  TIP3      OH2             5.5872440715      -10.8300431996       26.5568516778  TIP3      1178            0.0000000000
     22249      1338  TIP3      H1              4.7078553733      -10.5771852788       26.1636272438  TIP3      1178            0.0000000000
     22250      1338  TIP3      H2              5.6370809084      -11.7701697078       26.3138816650  TIP3      1178            0.0000000000
     22251      1339  TIP3      OH2             9.1323393731      -10.7578928489       23.7135442963  TIP3      1179            0.0000000000
     22252      1339  TIP3      H1              9.9560588339      -10.3199900632       23.9704153350  TIP3      1179            0.0000000000
     22253      1339  TIP3      H2              8.7526916920      -10.1072434126       23.0882585615  TIP3      1179            0.0000000000
     22254      1340  TIP3      OH2            14.7046374763      -13.2222610843       30.5005474880  TIP3      1180            0.0000000000
     22255      1340  TIP3      H1             14.2609153907      -13.7149119764       31.2033191245  TIP3      1180            0.0000000000
     22256      1340  TIP3      H2             15.1268816876      -13.9637992889       30.0171277185  TIP3      1180            0.0000000000
     22257      1341  TIP3      OH2             7.9295928285       -9.3812880997       21.4954736194  TIP3      1181            0.0000000000
     22258      1341  TIP3      H1              8.1316434219      -10.2452228114       21.0798352831  TIP3      1181            0.0000000000
     22259      1341  TIP3      H2              8.6467151899       -8.8613147026       21.0818079835  TIP3      1181            0.0000000000
     22260      1342  TIP3      OH2            18.2435815946        2.6626533974       37.5860169867  TIP3      1182            0.0000000000
     22261      1342  TIP3      H1             18.4395513591        2.6669155107       36.6285707456  TIP3      1182            0.0000000000
     22262      1342  TIP3      H2             18.8126170141        3.4101603167       37.8592228044  TIP3      1182            0.0000000000
     22263      1343  TIP3      OH2             5.8704310471       -4.8515057627       36.9425796419  TIP3      1183            0.0000000000
     22264      1343  TIP3      H1              6.6291190304       -4.6933451175       37.5428779488  TIP3      1183            0.0000000000
     22265      1343  TIP3      H2              5.1060327059       -4.9577890019       37.5536415288  TIP3      1183            0.0000000000
     22266      1344  TIP3      OH2            11.5175595342       -9.3716676036       29.0887997162  TIP3      1184            0.0000000000
     22267      1344  TIP3      H1             12.3754959023       -9.6390331067       28.7227151617  TIP3      1184            0.0000000000
     22268      1344  TIP3      H2             11.5344451193       -9.7859514419       29.9638937464  TIP3      1184            0.0000000000
     22269      1345  TIP3      OH2             6.9840529291      -13.5428546196       25.7995215400  TIP3      1185            0.0000000000
     22270      1345  TIP3      H1              6.3430769854      -14.1650269112       26.2239320405  TIP3      1185            0.0000000000
     22271      1345  TIP3      H2              7.0760209076      -13.9133172849       24.9091081174  TIP3      1185            0.0000000000
     22272      1346  TIP3      OH2            10.7917453644      -11.3407780078       31.6554149968  TIP3      1186            0.0000000000
     22273      1346  TIP3      H1              9.9054099049      -10.9390616923       31.5707635837  TIP3      1186            0.0000000000
     22274      1346  TIP3      H2             11.1359882200      -10.8291507355       32.3991195295  TIP3      1186            0.0000000000
     22275      1347  TIP3      OH2            11.3404062176       -4.9735288167       23.8073531181  TIP3      1187            0.0000000000
     22276      1347  TIP3      H1             10.6205470763       -5.5452468812       23.4465538727  TIP3      1187            0.0000000000
     22277      1347  TIP3      H2             10.9454179894       -4.6870374836       24.6552979303  TIP3      1187            0.0000000000
     22278      1348  TIP3      OH2            18.4161670335       -5.3877832043       32.8216346731  TIP3      1188            0.0000000000
     22279      1348  TIP3      H1             18.4962378871       -5.0908378566       31.8997904268  TIP3      1188            0.0000000000
     22280      1348  TIP3      H2             17.6173798497       -5.9414384147       32.7416833826  TIP3      1188            0.0000000000
     22281      1349  TIP3      OH2            13.3000383158       -4.6096461757       35.4247891070  TIP3      1189            0.0000000000
     22282      1349  TIP3      H1             12.5197151175       -5.1625258397       35.3170021712  TIP3      1189            0.0000000000
     22283      1349  TIP3      H2             12.9081112919       -3.7042666354       35.4053237403  TIP3      1189            0.0000000000
     22284      1350  TIP3      OH2             6.6527142926       -5.4807838991       29.5213138506  TIP3      1190            0.0000000000
     22285      1350  TIP3      H1              6.8779226456       -5.7272945305       28.6153942463  TIP3      1190            0.0000000000
     22286      1350  TIP3      H2              6.7555352055       -6.3154599087       30.0015194042  TIP3      1190            0.0000000000
     22287      1351  TIP3      OH2             3.5345007273       -7.5379743392       34.4516861386  TIP3      1191            0.0000000000
     22288      1351  TIP3      H1              3.2208248406       -7.9222641122       35.2972524467  TIP3      1191            0.0000000000
     22289      1351  TIP3      H2              2.7540288341       -7.6715256923       33.8756427695  TIP3      1191            0.0000000000
     22290      1352  TIP3      OH2            10.8208866785       -7.7393427503       36.3088793799  TIP3      1192            0.0000000000
     22291      1352  TIP3      H1             10.2406308183       -8.4899324884       36.1191699925  TIP3      1192            0.0000000000
     22292      1352  TIP3      H2             11.6637016195       -8.2169389785       36.5284789229  TIP3      1192            0.0000000000
     22293      1353  TIP3      OH2            15.4173825582       -1.9529906807       34.6059679366  TIP3      1193            0.0000000000
     22294      1353  TIP3      H1             14.5768088267       -2.1822189500       34.1935523722  TIP3      1193            0.0000000000
     22295      1353  TIP3      H2             15.0715244971       -1.7158908438       35.4749325883  TIP3      1193            0.0000000000
     22296      1354  TIP3      OH2            20.6230043296      -10.0945475569       23.4369901540  TIP3      1194            0.0000000000
     22297      1354  TIP3      H1             20.7888773597      -10.6238381445       22.6356040163  TIP3      1194            0.0000000000
     22298      1354  TIP3      H2             20.8966820011       -9.1993571631       23.1620959463  TIP3      1194            0.0000000000
     22299      1355  TIP3      OH2            20.8690791495       -3.7994218622       36.0862797529  TIP3      1195            0.0000000000
     22300      1355  TIP3      H1             19.9007877026       -3.7836699977       35.9160265803  TIP3      1195            0.0000000000
     22301      1355  TIP3      H2             21.2142636019       -4.0177370188       35.1915148005  TIP3      1195            0.0000000000
     22302      1356  TIP3      OH2            18.8436357153       -1.1592198089       23.6753740262  TIP3      1196            0.0000000000
     22303      1356  TIP3      H1             18.8000384180       -1.9665584098       24.2097293493  TIP3      1196            0.0000000000
     22304      1356  TIP3      H2             19.5036573975       -1.3795865844       22.9934904933  TIP3      1196            0.0000000000
     22305      1357  TIP3      OH2            16.2932088621       -6.5580497038       30.9149949422  TIP3      1197            0.0000000000
     22306      1357  TIP3      H1             15.5521847439       -6.4023256184       30.3036171983  TIP3      1197            0.0000000000
     22307      1357  TIP3      H2             17.0848561271       -6.3729336205       30.3653029047  TIP3      1197            0.0000000000
     22308      1358  TIP3      OH2             8.5649866525       -2.1407441060       26.7634927088  TIP3      1198            0.0000000000
     22309      1358  TIP3      H1              8.6841355416       -1.3402092235       26.2004291145  TIP3      1198            0.0000000000
     22310      1358  TIP3      H2              7.6120344255       -2.2861283526       26.6488678589  TIP3      1198            0.0000000000
     22311      1359  TIP3      OH2            10.4372828260       -4.1673427509       26.3363752068  TIP3      1199            0.0000000000
     22312      1359  TIP3      H1              9.6509258636       -3.5887109360       26.3851230888  TIP3      1199            0.0000000000
     22313      1359  TIP3      H2             10.0821501518       -4.9921880732       26.7349748942  TIP3      1199            0.0000000000
     22314      1360  TIP3      OH2            10.8115674054       -0.2857266250       33.3628296941  TIP3      1200            0.0000000000
     22315      1360  TIP3      H1             11.5590144171        0.2477912403       33.0219575977  TIP3      1200            0.0000000000
     22316      1360  TIP3      H2             11.2591861981       -1.1326216296       33.5561038019  TIP3      1200            0.0000000000
     22317      1361  TIP3      OH2             9.1053790943        0.2419504040       25.7503815209  TIP3      1201            0.0000000000
     22318      1361  TIP3      H1              8.2012600154        0.5387320941       25.9608074315  TIP3      1201            0.0000000000
     22319      1361  TIP3      H2              9.5978816464        1.0289634004       26.0785196533  TIP3      1201            0.0000000000
     22320      1362  TIP3      OH2            14.5310602689       -4.4833154397       32.5919309842  TIP3      1202            0.0000000000
     22321      1362  TIP3      H1             14.0657153373       -4.7611320058       33.3953799974  TIP3      1202            0.0000000000
     22322      1362  TIP3      H2             14.6037430449       -5.3042702440       32.0826112586  TIP3      1202            0.0000000000
     22323      1363  TIP3      OH2            16.7961963790        0.5482761749       35.0037774824  TIP3      1203            0.0000000000
     22324      1363  TIP3      H1             16.0112695084        0.0078047188       34.7374614691  TIP3      1203            0.0000000000
     22325      1363  TIP3      H2             16.9924854385        0.9794878854       34.1404000109  TIP3      1203            0.0000000000
     22326      1364  TIP3      OH2             4.6733514008      -12.6931808683       33.8890068997  TIP3      1204            0.0000000000
     22327      1364  TIP3      H1              3.7881714219      -12.2571136789       33.8952832786  TIP3      1204            0.0000000000
     22328      1364  TIP3      H2              4.5906090318      -13.3197236327       34.6159765158  TIP3      1204            0.0000000000
     22329      1365  TIP3      OH2             4.8019733697       -0.6998125926       32.6195811312  TIP3      1205            0.0000000000
     22330      1365  TIP3      H1              5.2963862818       -1.4734684910       32.9215695698  TIP3      1205            0.0000000000
     22331      1365  TIP3      H2              4.3571309531       -0.4225259181       33.4348678139  TIP3      1205            0.0000000000
     22332      1366  TIP3      OH2             9.4909433466       -2.5912022990       22.4484903132  TIP3      1206            0.0000000000
     22333      1366  TIP3      H1             10.1409205500       -3.0224526586       23.0223220555  TIP3      1206            0.0000000000
     22334      1366  TIP3      H2              9.5657580462       -1.6341895712       22.6849507794  TIP3      1206            0.0000000000
     22335      1367  TIP3      OH2             6.4350293477       -5.1735642666       23.5746565292  TIP3      1207            0.0000000000
     22336      1367  TIP3      H1              5.5788871178       -4.8223981667       23.9013195941  TIP3      1207            0.0000000000
     22337      1367  TIP3      H2              6.6947418141       -4.5098149397       22.9104445020  TIP3      1207            0.0000000000
     22338      1368  TIP3      OH2            13.5533825513      -12.5890769959       33.7916113276  TIP3      1208            0.0000000000
     22339      1368  TIP3      H1             14.1948828732      -12.5175800094       34.5323754768  TIP3      1208            0.0000000000
     22340      1368  TIP3      H2             13.3725215345      -13.5545787728       33.8492647352  TIP3      1208            0.0000000000
     22341      1369  TIP3      OH2            12.6104461442       -0.6298598545       22.7909398093  TIP3      1209            0.0000000000
     22342      1369  TIP3      H1             11.6870042761       -0.3730507177       22.9807282031  TIP3      1209            0.0000000000
     22343      1369  TIP3      H2             12.9933376023        0.2096020066       22.4840558146  TIP3      1209            0.0000000000
     22344      1370  TIP3      OH2            11.9293872065      -11.2723014119       25.5518566236  TIP3      1210            0.0000000000
     22345      1370  TIP3      H1             12.4466597034      -10.4284360371       25.5461560022  TIP3      1210            0.0000000000
     22346      1370  TIP3      H2             12.1000650463      -11.5397543527       26.4805232654  TIP3      1210            0.0000000000
     22347      1371  TIP3      OH2            12.6198645129      -10.1352785365       34.5116261855  TIP3      1211            0.0000000000
     22348      1371  TIP3      H1             12.6346365961       -9.9371508081       35.4789701694  TIP3      1211            0.0000000000
     22349      1371  TIP3      H2             12.7803945031      -11.0989990842       34.4701398219  TIP3      1211            0.0000000000
     22350      1372  TIP3      OH2            12.9267070440      -14.3039590383       25.7737792674  TIP3      1212            0.0000000000
     22351      1372  TIP3      H1             12.7877523239      -14.5639009494       26.7141713201  TIP3      1212            0.0000000000
     22352      1372  TIP3      H2             13.4799312539      -13.5084063306       25.8533021305  TIP3      1212            0.0000000000
     22353      1373  TIP3      OH2             9.8873940080       -0.1076950722       23.2026680492  TIP3      1213            0.0000000000
     22354      1373  TIP3      H1              9.9858877639        0.7607395777       22.7428172272  TIP3      1213            0.0000000000
     22355      1373  TIP3      H2              9.5306690770        0.2135765372       24.0596304259  TIP3      1213            0.0000000000
     22356      1374  TIP3      OH2             8.3036433308      -13.3022558187       23.0388917180  TIP3      1214            0.0000000000
     22357      1374  TIP3      H1              8.2876569802      -12.3693636734       23.3325512151  TIP3      1214            0.0000000000
     22358      1374  TIP3      H2              9.2534255165      -13.4958202484       23.1025011494  TIP3      1214            0.0000000000
     22359      1375  TIP3      OH2            18.3466920168      -12.5477742613       35.1401968810  TIP3      1215            0.0000000000
     22360      1375  TIP3      H1             17.5932328891      -11.9738679218       34.9042059341  TIP3      1215            0.0000000000
     22361      1375  TIP3      H2             18.7145030109      -12.8208851168       34.2805046089  TIP3      1215            0.0000000000
     22362      1376  TIP3      OH2            17.6576296644       -8.5518828170       28.9858293087  TIP3      1216            0.0000000000
     22363      1376  TIP3      H1             16.8033443323       -8.5236310172       29.4420680197  TIP3      1216            0.0000000000
     22364      1376  TIP3      H2             18.2345677378       -8.9607899971       29.6568893618  TIP3      1216            0.0000000000
     22365      1377  TIP3      OH2             6.9432710538       -2.9692147949       21.6132076028  TIP3      1217            0.0000000000
     22366      1377  TIP3      H1              7.8770223043       -2.7836627752       21.8804954364  TIP3      1217            0.0000000000
     22367      1377  TIP3      H2              7.0856076238       -3.4498857983       20.7721497202  TIP3      1217            0.0000000000
     22368      1378  TIP3      OH2            18.7096374320        0.7528894427       30.3755509555  TIP3      1218            0.0000000000
     22369      1378  TIP3      H1             18.3741745935        1.5148693600       29.8664432333  TIP3      1218            0.0000000000
     22370      1378  TIP3      H2             19.5909749526        1.1300798696       30.5965069617  TIP3      1218            0.0000000000
     22371      1379  TIP3      OH2             5.2846255954      -15.4219271459       30.0110036608  TIP3      1219            0.0000000000
     22372      1379  TIP3      H1              5.3822789824      -15.4554890908       29.0265652154  TIP3      1219            0.0000000000
     22373      1379  TIP3      H2              4.8334304445      -16.2640630726       30.2027735360  TIP3      1219            0.0000000000
     22374      1380  TIP3      OH2             4.4912203137       -1.8908935385       25.2062387011  TIP3      1220            0.0000000000
     22375      1380  TIP3      H1              4.0190846189       -1.3296222460       25.8312093781  TIP3      1220            0.0000000000
     22376      1380  TIP3      H2              4.8667423640       -1.1958294011       24.6357486990  TIP3      1220            0.0000000000
     22377      1381  TIP3      OH2             3.8743388098        0.7044476585       35.9688605133  TIP3      1221            0.0000000000
     22378      1381  TIP3      H1              4.1904213512        1.1242016190       36.8018181956  TIP3      1221            0.0000000000
     22379      1381  TIP3      H2              3.2164486218        0.0239290661       36.2555885816  TIP3      1221            0.0000000000
     22380      1382  TIP3      OH2             9.0112488487        0.2123901573       38.8459144121  TIP3      1222            0.0000000000
     22381      1382  TIP3      H1              9.8723208320       -0.2367918809       38.7772945925  TIP3      1222            0.0000000000
     22382      1382  TIP3      H2              8.4638379978       -0.4126608362       38.3423668524  TIP3      1222            0.0000000000
     22383      1383  TIP3      OH2            15.0287969113       -1.0378662486       37.3851635233  TIP3      1223            0.0000000000
     22384      1383  TIP3      H1             14.6907090907       -1.9332427266       37.5723998362  TIP3      1223            0.0000000000
     22385      1383  TIP3      H2             15.7713971267       -0.9987838489       38.0137312680  TIP3      1223            0.0000000000
     22386      1384  TIP3      OH2             3.5511846825       -5.1429735831       38.3766578755  TIP3      1224            0.0000000000
     22387      1384  TIP3      H1              3.1470150703       -6.0316950496       38.4100988712  TIP3      1224            0.0000000000
     22388      1384  TIP3      H2              3.0192524070       -4.7384567995       37.6456752871  TIP3      1224            0.0000000000
     22389      1385  TIP3      OH2            10.6098400412       -5.1358538279       37.1109305227  TIP3      1225            0.0000000000
     22390      1385  TIP3      H1             10.5404844674       -4.4240905850       36.4490672196  TIP3      1225            0.0000000000
     22391      1385  TIP3      H2             10.7078140242       -5.9674629627       36.5841838880  TIP3      1225            0.0000000000
     22392      1386  TIP3      OH2            15.9323795122       -5.1435486648       35.1060418218  TIP3      1226            0.0000000000
     22393      1386  TIP3      H1             16.5917844606       -4.4142931448       35.1075630876  TIP3      1226            0.0000000000
     22394      1386  TIP3      H2             15.0769346112       -4.6520215355       35.1349249759  TIP3      1226            0.0000000000
     22395      1387  TIP3      OH2             5.3112711678       -7.8112592018       37.2641316856  TIP3      1227            0.0000000000
     22396      1387  TIP3      H1              5.0869663739       -8.5267099410       37.8673184558  TIP3      1227            0.0000000000
     22397      1387  TIP3      H2              5.7889364673       -7.2148119434       37.8498639341  TIP3      1227            0.0000000000
     22398      1388  TIP3      OH2             9.4158974953       -6.5734611050       22.8083350138  TIP3      1228            0.0000000000
     22399      1388  TIP3      H1              8.8205334314       -7.1529283405       23.3156640677  TIP3      1228            0.0000000000
     22400      1388  TIP3      H2              9.6876705466       -7.1374343789       22.0562518065  TIP3      1228            0.0000000000
     22401      1389  TIP3      OH2             8.1514951808       -8.6008530294       34.0043387433  TIP3      1229            0.0000000000
     22402      1389  TIP3      H1              7.5918791823       -7.7943658288       33.9503297419  TIP3      1229            0.0000000000
     22403      1389  TIP3      H2              9.0451965471       -8.1976054167       33.8851157858  TIP3      1229            0.0000000000
     22404      1390  TIP3      OH2            10.2344249664       -8.2113632693       20.6783450639  TIP3      1230            0.0000000000
     22405      1390  TIP3      H1             10.3536082825       -8.0660076954       19.7297246648  TIP3      1230            0.0000000000
     22406      1390  TIP3      H2             11.1018396979       -8.5677958963       20.9430553766  TIP3      1230            0.0000000000
     22407      1391  TIP3      OH2            14.0204711833       -6.0669344533       38.3575709636  TIP3      1231            0.0000000000
     22408      1391  TIP3      H1             14.8354033987       -6.4460339911       37.9729836862  TIP3      1231            0.0000000000
     22409      1391  TIP3      H2             13.6544117025       -6.8060319303       38.8662415263  TIP3      1231            0.0000000000
     22410      1392  TIP3      OH2             9.0992714544      -10.8801616598       35.4328632711  TIP3      1232            0.0000000000
     22411      1392  TIP3      H1              9.4617851962      -11.5445630406       34.8065641809  TIP3      1232            0.0000000000
     22412      1392  TIP3      H2              9.0108430746      -10.0941466277       34.8608809633  TIP3      1232            0.0000000000
     22413      1393  TIP3      OH2             9.6110576622      -12.9163888286       33.5262501658  TIP3      1233            0.0000000000
     22414      1393  TIP3      H1             10.1392511325      -12.6367556122       32.7422238752  TIP3      1233            0.0000000000
     22415      1393  TIP3      H2              8.6965707076      -12.7598622366       33.2259504487  TIP3      1233            0.0000000000
     22416      1394  TIP3      OH2            10.8114650783       -7.5879265615       33.2452280899  TIP3      1234            0.0000000000
     22417      1394  TIP3      H1             11.6986040878       -7.2113152839       33.2167190900  TIP3      1234            0.0000000000
     22418      1394  TIP3      H2             10.2472219437       -6.8040825011       33.0877969739  TIP3      1234            0.0000000000
     22419      1395  TIP3      OH2            15.5572565255       -9.7499396540       38.6010264234  TIP3      1235            0.0000000000
     22420      1395  TIP3      H1             15.1750498996      -10.6410902363       38.7445352358  TIP3      1235            0.0000000000
     22421      1395  TIP3      H2             16.5217966562       -9.8460062001       38.6422709813  TIP3      1235            0.0000000000
     22422      1396  TIP3      OH2            16.7187694394       -6.7338020895       37.0619612299  TIP3      1236            0.0000000000
     22423      1396  TIP3      H1             16.2426460597       -6.2167186566       36.3694051876  TIP3      1236            0.0000000000
     22424      1396  TIP3      H2             17.5800692189       -6.8174614202       36.6113647544  TIP3      1236            0.0000000000
     22425      1397  TIP3      OH2             7.5894114782      -10.4078956905       37.8130788123  TIP3      1237            0.0000000000
     22426      1397  TIP3      H1              6.7385651416      -10.6414776829       37.3863793203  TIP3      1237            0.0000000000
     22427      1397  TIP3      H2              8.1919704385      -10.7487822637       37.1148085271  TIP3      1237            0.0000000000
     22428      1398  TIP3      OH2             9.9536788268      -15.5425654550       34.0348491443  TIP3      1238            0.0000000000
     22429      1398  TIP3      H1              9.6854983307      -14.5961646509       33.9698384845  TIP3      1238            0.0000000000
     22430      1398  TIP3      H2              9.4273567447      -15.9437330794       33.3326597491  TIP3      1238            0.0000000000
     22431      1399  TIP3      OH2            11.0927165258      -11.0892459690       37.7209860604  TIP3      1239            0.0000000000
     22432      1399  TIP3      H1             11.4251376182      -11.6397558540       38.4633111463  TIP3      1239            0.0000000000
     22433      1399  TIP3      H2             10.3850404518      -11.6277012606       37.3594525092  TIP3      1239            0.0000000000
     22434      1400  TIP3      OH2            14.5078123198      -12.4588617891       36.4485212746  TIP3      1240            0.0000000000
     22435      1400  TIP3      H1             13.6403074602      -12.2981705092       36.8690483131  TIP3      1240            0.0000000000
     22436      1400  TIP3      H2             14.9921693641      -12.5930987109       37.2904570963  TIP3      1240            0.0000000000
     22437      1401  TIP3      OH2            16.1679025077      -13.5752788512       38.5738033738  TIP3      1241            0.0000000000
     22438      1401  TIP3      H1             15.8182814712      -14.4918301837       38.5692702764  TIP3      1241            0.0000000000
     22439      1401  TIP3      H2             15.8782105059      -13.2472075911       39.4551122221  TIP3      1241            0.0000000000
     22440      1402  TIP3      OH2             5.6470896219      -12.2589758962       37.2366622224  TIP3      1242            0.0000000000
     22441      1402  TIP3      H1              6.0405106844      -13.1045560654       36.9831063896  TIP3      1242            0.0000000000
     22442      1402  TIP3      H2              5.6437287952      -12.3389866930       38.2213288262  TIP3      1242            0.0000000000
     22443      1403  TIP3      OH2             9.8725076485      -16.4444630764       36.6773867543  TIP3      1243            0.0000000000
     22444      1403  TIP3      H1             10.4355733295      -17.2404940790       36.6364730997  TIP3      1243            0.0000000000
     22445      1403  TIP3      H2              9.9367467620      -16.1494823143       35.7417883937  TIP3      1243            0.0000000000
     22446      1404  TIP3      OH2            10.4337471142      -14.7464844181       38.9565748082  TIP3      1244            0.0000000000
     22447      1404  TIP3      H1             10.1968727582      -15.1344869279       38.0900470745  TIP3      1244            0.0000000000
     22448      1404  TIP3      H2              9.8694756962      -13.9475228715       38.9738640082  TIP3      1244            0.0000000000
     22449      1405  TIP3      OH2            10.2189501462        2.2749488007       22.0670651094  TIP3      1245            0.0000000000
     22450      1405  TIP3      H1             11.0139790121        2.3349139441       21.5081744828  TIP3      1245            0.0000000000
     22451      1405  TIP3      H2              9.8978097902        3.1850247565       22.0631022933  TIP3      1245            0.0000000000
     22452      1406  TIP3      OH2             4.2064357849       -3.1592469631       21.4619769014  TIP3      1246            0.0000000000
     22453      1406  TIP3      H1              5.1546565677       -2.9480294855       21.6309210627  TIP3      1246            0.0000000000
     22454      1406  TIP3      H2              4.3416343139       -3.6143812840       20.6175472293  TIP3      1246            0.0000000000
     22455      1407  TIP3      OH2             2.0850767219        2.0615926576       26.7750097078  TIP3      1247            0.0000000000
     22456      1407  TIP3      H1              1.5872260299        1.5412604255       26.1087652860  TIP3      1247            0.0000000000
     22457      1407  TIP3      H2              2.5568523396        1.3495021785       27.2536632865  TIP3      1247            0.0000000000
     22458      1408  TIP3      OH2             3.6937122128        0.2478998891       27.9895550115  TIP3      1248            0.0000000000
     22459      1408  TIP3      H1              3.1881605061       -0.4088549625       28.5068301366  TIP3      1248            0.0000000000
     22460      1408  TIP3      H2              4.1797688468        0.6974045118       28.7225439325  TIP3      1248            0.0000000000
     22461      1409  TIP3      OH2            21.0007546078        1.8109196993       31.0174671508  TIP3      1249            0.0000000000
     22462      1409  TIP3      H1             21.1630434781        2.4832522702       31.7092518358  TIP3      1249            0.0000000000
     22463      1409  TIP3      H2             21.8398161499        1.8264441031       30.5261431263  TIP3      1249            0.0000000000
     22464      1410  TIP3      OH2            20.6919142033        0.8888843388       34.2936140802  TIP3      1250            0.0000000000
     22465      1410  TIP3      H1             20.0638259481        0.2760006894       34.7090619541  TIP3      1250            0.0000000000
     22466      1410  TIP3      H2             21.3108427723        0.9795440304       35.0417576668  TIP3      1250            0.0000000000
     22467      1411  TIP3      OH2            19.2927936857       -3.5144731404       38.9042405459  TIP3      1251            0.0000000000
     22468      1411  TIP3      H1             18.3799617913       -3.3202837117       39.2115179988  TIP3      1251            0.0000000000
     22469      1411  TIP3      H2             19.7982450493       -2.8654773728       39.4357663388  TIP3      1251            0.0000000000
     22470      1412  TIP3      OH2            19.9411908710       -4.8487872074       23.9140224530  TIP3      1252            0.0000000000
     22471      1412  TIP3      H1             20.8497638805       -4.6093026175       24.1973164628  TIP3      1252            0.0000000000
     22472      1412  TIP3      H2             19.5621261681       -5.2379299630       24.7300785726  TIP3      1252            0.0000000000
     22473      1413  TIP3      OH2            20.6491532718       -6.9260647071       26.1154276514  TIP3      1253            0.0000000000
     22474      1413  TIP3      H1             19.8664455070       -7.4661060974       26.3689908222  TIP3      1253            0.0000000000
     22475      1413  TIP3      H2             20.8486223207       -6.4739988114       26.9516382322  TIP3      1253            0.0000000000
     22476      1414  TIP3      OH2            21.2073048205       -4.4105839327       31.5306072573  TIP3      1254            0.0000000000
     22477      1414  TIP3      H1             20.8754379222       -5.1459003042       30.9789974487  TIP3      1254            0.0000000000
     22478      1414  TIP3      H2             20.8415007941       -3.6966057826       30.9856882373  TIP3      1254            0.0000000000
     22479      1415  TIP3      OH2            18.3260364681       -1.4734381582       33.6495187107  TIP3      1255            0.0000000000
     22480      1415  TIP3      H1             17.4526177334       -1.2010851960       33.9873663262  TIP3      1255            0.0000000000
     22481      1415  TIP3      H2             18.0750177336       -1.7185560822       32.7273628943  TIP3      1255            0.0000000000
     22482      1416  TIP3      OH2            20.6835179539       -7.1939838384       22.8171329343  TIP3      1256            0.0000000000
     22483      1416  TIP3      H1             20.0486297072       -7.2879544500       22.0966578264  TIP3      1256            0.0000000000
     22484      1416  TIP3      H2             20.3949212156       -6.3317492284       23.2003536518  TIP3      1256            0.0000000000
     22485      1417  TIP3      OH2            18.5439977904       -8.6275332198       26.5029385965  TIP3      1257            0.0000000000
     22486      1417  TIP3      H1             18.3582599476       -9.5758231757       26.4838264974  TIP3      1257            0.0000000000
     22487      1417  TIP3      H2             18.1868009807       -8.4083959517       27.4034966157  TIP3      1257            0.0000000000
     22488      1418  TIP3      OH2             3.4091930008       -6.2550764633       30.8337790559  TIP3      1258            0.0000000000
     22489      1418  TIP3      H1              3.4475657351       -6.4109450143       29.8594076666  TIP3      1258            0.0000000000
     22490      1418  TIP3      H2              4.3197762586       -6.5745147112       31.0260034676  TIP3      1258            0.0000000000
     22491      1419  TIP3      OH2            19.6101360345       -6.6836849128       36.2753084315  TIP3      1259            0.0000000000
     22492      1419  TIP3      H1             20.1488869024       -7.4990504358       36.3703297333  TIP3      1259            0.0000000000
     22493      1419  TIP3      H2             20.2842144508       -5.9787236230       36.2513137458  TIP3      1259            0.0000000000
     22494      1420  TIP3      OH2            20.8894432322       -9.0298839593       36.6901021803  TIP3      1260            0.0000000000
     22495      1420  TIP3      H1             19.9247859616       -9.2256537773       36.6682258384  TIP3      1260            0.0000000000
     22496      1420  TIP3      H2             21.2089930041       -9.9110136254       36.9911928668  TIP3      1260            0.0000000000
     22497      1421  TIP3      OH2            17.7962618670      -10.9238008434       24.7323280598  TIP3      1261            0.0000000000
     22498      1421  TIP3      H1             18.0256679756      -11.7900776211       25.1075466854  TIP3      1261            0.0000000000
     22499      1421  TIP3      H2             18.6702700289      -10.6179964526       24.4519515091  TIP3      1261            0.0000000000
     22500      1422  TIP3      OH2            19.0927417073      -10.2715136601       30.7082766155  TIP3      1262            0.0000000000
     22501      1422  TIP3      H1             20.0416351998      -10.0714407214       30.5148309976  TIP3      1262            0.0000000000
     22502      1422  TIP3      H2             19.0301706245       -9.8647983793       31.6008258912  TIP3      1262            0.0000000000
     22503      1423  TIP3      OH2            18.7938981978       -9.7048820647       33.3017001113  TIP3      1263            0.0000000000
     22504      1423  TIP3      H1             17.8906589125       -9.3864177130       33.5432169101  TIP3      1263            0.0000000000
     22505      1423  TIP3      H2             19.2205249823       -8.8188870543       33.2209812588  TIP3      1263            0.0000000000
     22506      1424  TIP3      OH2             3.1582184373      -11.3161973836       37.1319793963  TIP3      1264            0.0000000000
     22507      1424  TIP3      H1              4.1028693040      -11.5576108204       37.0012803062  TIP3      1264            0.0000000000
     22508      1424  TIP3      H2              2.7172027560      -11.7377768676       36.3744677995  TIP3      1264            0.0000000000
     22509      1425  TIP3      OH2            21.7757973213      -15.2385264294       38.3968825151  TIP3      1265            0.0000000000
     22510      1425  TIP3      H1             21.2263138676      -15.9913182037       38.1479987640  TIP3      1265            0.0000000000
     22511      1425  TIP3      H2             21.4886905597      -14.5561534975       37.7374274573  TIP3      1265            0.0000000000
     22512      1426  TIP3      OH2            18.8953809956      -13.6638266735       24.9009336255  TIP3      1266            0.0000000000
     22513      1426  TIP3      H1             19.2725738176      -14.0101028380       25.7270217865  TIP3      1266            0.0000000000
     22514      1426  TIP3      H2             18.2598945036      -14.3651637997       24.6512560420  TIP3      1266            0.0000000000
     22515      1427  TIP3      OH2             4.3443493514      -13.0420183496       29.4335360884  TIP3      1267            0.0000000000
     22516      1427  TIP3      H1              4.6749912401      -13.8999360508       29.7690777526  TIP3      1267            0.0000000000
     22517      1427  TIP3      H2              5.1390392917      -12.5029966923       29.3982129305  TIP3      1267            0.0000000000
     22518      1428  TIP3      OH2             2.4998077285       -9.5763797077       30.5700337091  TIP3      1268            0.0000000000
     22519      1428  TIP3      H1              2.5922023944       -9.3449510451       29.6346391927  TIP3      1268            0.0000000000
     22520      1428  TIP3      H2              2.1985314720       -8.7404433630       30.9788081977  TIP3      1268            0.0000000000
     22521      1429  TIP3      OH2            20.6387867866      -13.7610442049       36.6464275751  TIP3      1269            0.0000000000
     22522      1429  TIP3      H1             19.8871874323      -13.3744802396       37.1696540625  TIP3      1269            0.0000000000
     22523      1429  TIP3      H2             20.1941645297      -14.2633692373       35.9406153722  TIP3      1269            0.0000000000
     22524      1430  TIP3      OH2            20.5710153287      -13.5447942260       21.8272825083  TIP3      1270            0.0000000000
     22525      1430  TIP3      H1             21.0696059047      -14.3363303876       21.5453585357  TIP3      1270            0.0000000000
     22526      1430  TIP3      H2             21.3106891062      -12.9942351192       22.1539961147  TIP3      1270            0.0000000000
     22527      1431  TIP3      OH2             2.6046651166      -13.3614441716       24.8247330326  TIP3      1271            0.0000000000
     22528      1431  TIP3      H1              1.6560515266      -13.1039526572       24.8915452532  TIP3      1271            0.0000000000
     22529      1431  TIP3      H2              2.6726105456      -13.7066889706       23.9249136925  TIP3      1271            0.0000000000
     22530      1432  TIP3      OH2            17.9337199311        1.3389513269       26.5007940015  TIP3      1272            0.0000000000
     22531      1432  TIP3      H1             18.7960025399        1.5310242776       26.1182721995  TIP3      1272            0.0000000000
     22532      1432  TIP3      H2             17.5982323228        2.2155603572       26.7589105855  TIP3      1272            0.0000000000
     22533      1433  TIP3      OH2             2.9870103561      -15.3009146769       32.8047333906  TIP3      1273            0.0000000000
     22534      1433  TIP3      H1              2.4058958167      -15.4880033816       33.5667677921  TIP3      1273            0.0000000000
     22535      1433  TIP3      H2              2.9215121909      -14.3379822233       32.6589304286  TIP3      1273            0.0000000000
     22536      1434  TIP3      OH2             5.5595168673       -1.8136255753       37.2446695551  TIP3      1274            0.0000000000
     22537      1434  TIP3      H1              4.8003159053       -1.4122577718       36.7879481367  TIP3      1274            0.0000000000
     22538      1434  TIP3      H2              5.1962126783       -2.0310451493       38.1151621108  TIP3      1274            0.0000000000
     22539      1435  TIP3      OH2             7.8091355204       -0.2769105700       33.8290776358  TIP3      1275            0.0000000000
     22540      1435  TIP3      H1              7.7189626814        0.4352100904       33.1518913543  TIP3      1275            0.0000000000
     22541      1435  TIP3      H2              8.6012052851       -0.7086560161       33.4563249953  TIP3      1275            0.0000000000
     22542      1436  TIP3      OH2            12.0578748514        0.6104476981       36.2209837703  TIP3      1276            0.0000000000
     22543      1436  TIP3      H1             12.1351501065        0.4408589398       37.1818067487  TIP3      1276            0.0000000000
     22544      1436  TIP3      H2             12.9361410466        1.0234019125       36.0564529851  TIP3      1276            0.0000000000
     22545      1437  TIP3      OH2            14.1304741741        2.3450175087       35.8813781403  TIP3      1277            0.0000000000
     22546      1437  TIP3      H1             14.9045431525        1.9532892751       35.4454437142  TIP3      1277            0.0000000000
     22547      1437  TIP3      H2             14.5517656285        2.7010981226       36.6908331142  TIP3      1277            0.0000000000
     22548      1438  TIP3      OH2            19.7082288182      -15.6931159803       34.9685573893  TIP3      1278            0.0000000000
     22549      1438  TIP3      H1             19.1787722131      -15.2254207200       34.2904159512  TIP3      1278            0.0000000000
     22550      1438  TIP3      H2             19.8603958826      -16.5392162560       34.4944215165  TIP3      1278            0.0000000000
     22551      1439  TIP3      OH2             5.5502479346        2.6134921355       33.1869529844  TIP3      1279            0.0000000000
     22552      1439  TIP3      H1              4.8103361124        3.2198775822       32.9672024741  TIP3      1279            0.0000000000
     22553      1439  TIP3      H2              5.2657046578        2.3612933337       34.0731069417  TIP3      1279            0.0000000000
     22554      1440  TIP3      OH2             7.7663469590        1.6763717517       32.1207269017  TIP3      1280            0.0000000000
     22555      1440  TIP3      H1              6.8774348959        1.9744918099       32.4393831332  TIP3      1280            0.0000000000
     22556      1440  TIP3      H2              7.9739767211        2.4653347841       31.5542995167  TIP3      1280            0.0000000000
     22557      1441  TIP3      OH2            12.8649137449        1.0673547678       31.6363835461  TIP3      1281            0.0000000000
     22558      1441  TIP3      H1             12.2494034801        1.3693284411       30.9375455501  TIP3      1281            0.0000000000
     22559      1441  TIP3      H2             12.8330535809        1.8419068359       32.2458815292  TIP3      1281            0.0000000000
     22560      1442  TIP3      OH2            14.9471804471        0.4261903348       33.0974129121  TIP3      1282            0.0000000000
     22561      1442  TIP3      H1             14.2730225934        0.6365887754       32.4183153521  TIP3      1282            0.0000000000
     22562      1442  TIP3      H2             15.7044910452        0.9331510234       32.7580087603  TIP3      1282            0.0000000000
     22563      1443  TIP3      OH2            17.2215726382        1.8221136523       32.6085025214  TIP3      1283            0.0000000000
     22564      1443  TIP3      H1             17.2724294845        2.8064118853       32.6109082023  TIP3      1283            0.0000000000
     22565      1443  TIP3      H2             17.5166245725        1.6447776880       31.6995131144  TIP3      1283            0.0000000000
     22566      1444  TIP3      OH2             5.0963999658        1.0187184517       30.1561411501  TIP3      1284            0.0000000000
     22567      1444  TIP3      H1              4.8773152002        0.7174935255       31.0576184798  TIP3      1284            0.0000000000
     22568      1444  TIP3      H2              6.0447567003        0.7489291634       30.1000443978  TIP3      1284            0.0000000000
     22569      1445  TIP3      OH2             7.2989308709       -0.0296064425       29.1706605746  TIP3      1285            0.0000000000
     22570      1445  TIP3      H1              7.0412966148       -0.9491561971       29.4195517310  TIP3      1285            0.0000000000
     22571      1445  TIP3      H2              8.1985558130       -0.0325289278       29.5656784800  TIP3      1285            0.0000000000
     22572      1446  TIP3      OH2             9.7635810049       -0.3798075332       30.1647511124  TIP3      1286            0.0000000000
     22573      1446  TIP3      H1             10.1253948335       -1.0671716021       30.7571171465  TIP3      1286            0.0000000000
     22574      1446  TIP3      H2             10.0937605204        0.4383472350       30.6011233602  TIP3      1286            0.0000000000
     22575      1447  TIP3      OH2            12.5172869892      -14.5533871256       28.5575815939  TIP3      1287            0.0000000000
     22576      1447  TIP3      H1             11.7801049640      -15.0483321583       28.9766483947  TIP3      1287            0.0000000000
     22577      1447  TIP3      H2             13.3144384969      -14.8633027816       29.0239619669  TIP3      1287            0.0000000000
     22578      1448  TIP3      OH2            18.3561024398      -15.9977039337       29.1929608492  TIP3      1288            0.0000000000
     22579      1448  TIP3      H1             18.9126989372      -15.2766312419       28.8140298108  TIP3      1288            0.0000000000
     22580      1448  TIP3      H2             17.4599513401      -15.7460711633       28.9014671340  TIP3      1288            0.0000000000
     22581      1449  TIP3      OH2            19.8140171550      -14.4065071364       27.5965138646  TIP3      1289            0.0000000000
     22582      1449  TIP3      H1             20.3232153128      -15.1885839802       27.2698218333  TIP3      1289            0.0000000000
     22583      1449  TIP3      H2             20.5038933995      -13.7210859732       27.4842368898  TIP3      1289            0.0000000000
     22584      1450  TIP3      OH2             5.3660854262      -15.3541614934       27.1458718024  TIP3      1290            0.0000000000
     22585      1450  TIP3      H1              4.5346248665      -15.3762558795       26.6240936885  TIP3      1290            0.0000000000
     22586      1450  TIP3      H2              5.7188607673      -16.2502417582       26.9659463174  TIP3      1290            0.0000000000
     22587      1451  TIP3      OH2             4.6301636688      -15.7805070189       22.5929895259  TIP3      1291            0.0000000000
     22588      1451  TIP3      H1              4.6205227095      -15.5098471657       21.6506040415  TIP3      1291            0.0000000000
     22589      1451  TIP3      H2              3.7197265750      -16.0689274659       22.7331307029  TIP3      1291            0.0000000000
     22590      1452  TIP3      OH2            10.1368163332      -15.0988780890       26.5869754180  TIP3      1292            0.0000000000
     22591      1452  TIP3      H1             10.7636489335      -15.8086182959       26.4037239084  TIP3      1292            0.0000000000
     22592      1452  TIP3      H2             10.1309725867      -15.1055030026       27.5670154051  TIP3      1292            0.0000000000
     22593      1453  TIP3      OH2            15.5981499489      -15.3186570723       27.9702674308  TIP3      1293            0.0000000000
     22594      1453  TIP3      H1             15.5185657308      -15.7252398579       27.1002580735  TIP3      1293            0.0000000000
     22595      1453  TIP3      H2             15.1753060895      -16.0055901579       28.5255866031  TIP3      1293            0.0000000000
     22596      1454  TIP3      OH2            16.7918325557      -15.3883388548       24.1970547697  TIP3      1294            0.0000000000
     22597      1454  TIP3      H1             15.8875618453      -15.2262069417       24.4809535740  TIP3      1294            0.0000000000
     22598      1454  TIP3      H2             16.7824113435      -16.3717210420       24.2705967528  TIP3      1294            0.0000000000
     22599      1455  TIP3      OH2             4.2426150710        0.5518903356       23.7082366834  TIP3      1295            0.0000000000
     22600      1455  TIP3      H1              3.4925120692        0.3032257641       23.1362417630  TIP3      1295            0.0000000000
     22601      1455  TIP3      H2              4.3256333187        1.4632393252       23.3883315286  TIP3      1295            0.0000000000
     22602      1456  TIP3      OH2            11.1815866528      -13.3513977029       23.6241427903  TIP3      1296            0.0000000000
     22603      1456  TIP3      H1             11.5298721997      -13.9799010287       24.2860001176  TIP3      1296            0.0000000000
     22604      1456  TIP3      H2             11.6271567946      -12.5185864257       23.8764087471  TIP3      1296            0.0000000000
     22605      1457  TIP3      OH2            19.5079682225        1.4198385206       24.1383449432  TIP3      1297            0.0000000000
     22606      1457  TIP3      H1             19.1449140311        0.5157544682       24.0196285799  TIP3      1297            0.0000000000
     22607      1457  TIP3      H2             18.6860754450        1.9506938962       24.0177306008  TIP3      1297            0.0000000000
     22608      1458  TIP3      OH2             4.9957425596      -15.0474196036       36.5460649970  TIP3      1298            0.0000000000
     22609      1458  TIP3      H1              4.5993601035      -15.9340342382       36.4549898959  TIP3      1298            0.0000000000
     22610      1458  TIP3      H2              5.7764958225      -15.2581760353       37.0973987944  TIP3      1298            0.0000000000
     22611      1459  TIP3      OH2             7.1886437487      -15.6187702842       38.0746349847  TIP3      1299            0.0000000000
     22612      1459  TIP3      H1              7.9486275615      -15.7640381482       37.4778791544  TIP3      1299            0.0000000000
     22613      1459  TIP3      H2              7.0872675732      -16.4892296179       38.4969348565  TIP3      1299            0.0000000000
     22614      1460  TIP3      OH2             6.0667096069        2.0440250902       20.9567839012  TIP3      1300            0.0000000000
     22615      1460  TIP3      H1              5.4697013085        1.8978690216       21.6999308147  TIP3      1300            0.0000000000
     22616      1460  TIP3      H2              6.4932930752        1.1805728296       20.9371990437  TIP3      1300            0.0000000000
     22617      1461  TIP3      OH2            15.6481100220      -16.2548104613       38.2649018980  TIP3      1301            0.0000000000
     22618      1461  TIP3      H1             15.7423757132      -16.6389121598       39.1669731559  TIP3      1301            0.0000000000
     22619      1461  TIP3      H2             16.5428599164      -16.4152884278       37.8954860830  TIP3      1301            0.0000000000
     22620      1462  TIP3      OH2            18.6124535630       -0.0634393300       36.8256472884  TIP3      1302            0.0000000000
     22621      1462  TIP3      H1             17.9144901359       -0.4320073388       36.2437272813  TIP3      1302            0.0000000000
     22622      1462  TIP3      H2             18.1698005884        0.7949885780       36.9701100203  TIP3      1302            0.0000000000
     22623      1463  TIP3      OH2            33.7471347929       -6.3030875918       26.4601973500  TIP3      1303            0.0000000000
     22624      1463  TIP3      H1             34.0605584888       -5.3977788367       26.3341258932  TIP3      1303            0.0000000000
     22625      1463  TIP3      H2             34.0609725732       -6.8276848640       25.6901006462  TIP3      1303            0.0000000000
     22626      1464  TIP3      OH2            32.7580621275       -7.8875902600       29.7691727090  TIP3      1304            0.0000000000
     22627      1464  TIP3      H1             32.6237910870       -7.3436386815       30.5772636075  TIP3      1304            0.0000000000
     22628      1464  TIP3      H2             31.9008239730       -8.3457778304       29.7614092686  TIP3      1304            0.0000000000
     22629      1465  TIP3      OH2            24.8868310886       -7.2412181550       31.4880715997  TIP3      1305            0.0000000000
     22630      1465  TIP3      H1             24.7426992034       -8.0597812710       32.0083215057  TIP3      1305            0.0000000000
     22631      1465  TIP3      H2             25.5271936663       -6.7538064210       32.0486540389  TIP3      1305            0.0000000000
     22632      1466  TIP3      OH2            26.2278420532       -3.9265139268       30.5700442047  TIP3      1306            0.0000000000
     22633      1466  TIP3      H1             25.4938357691       -3.2747029284       30.4291331689  TIP3      1306            0.0000000000
     22634      1466  TIP3      H2             26.8149838876       -3.5482318560       29.8947648692  TIP3      1306            0.0000000000
     22635      1467  TIP3      OH2            22.0600400090       -9.3047262424       25.6578590787  TIP3      1307            0.0000000000
     22636      1467  TIP3      H1             21.6413835717       -8.5253232273       26.0850672584  TIP3      1307            0.0000000000
     22637      1467  TIP3      H2             21.3230002057       -9.6245211991       25.0987534849  TIP3      1307            0.0000000000
     22638      1468  TIP3      OH2            23.4219440233       -7.3587955131       27.6175930746  TIP3      1308            0.0000000000
     22639      1468  TIP3      H1             23.2570985875       -8.1119543536       28.2111850555  TIP3      1308            0.0000000000
     22640      1468  TIP3      H2             23.9238133967       -6.7293547911       28.1749242932  TIP3      1308            0.0000000000
     22641      1469  TIP3      OH2            32.8278749651        0.8246132629       28.9081843866  TIP3      1309            0.0000000000
     22642      1469  TIP3      H1             33.7645182468        0.5895270891       28.8012835184  TIP3      1309            0.0000000000
     22643      1469  TIP3      H2             32.7926803349        1.0372567318       29.8577565447  TIP3      1309            0.0000000000
     22644      1470  TIP3      OH2            30.6708655827       -3.3383148329       30.1657012460  TIP3      1310            0.0000000000
     22645      1470  TIP3      H1             30.6767198939       -4.3053217407       30.3905404241  TIP3      1310            0.0000000000
     22646      1470  TIP3      H2             31.4868082390       -3.0864263721       30.6497531533  TIP3      1310            0.0000000000
     22647      1471  TIP3      OH2            33.0036673521      -10.7160889558       30.6934367594  TIP3      1311            0.0000000000
     22648      1471  TIP3      H1             33.8497371911      -11.0276844974       31.0714632824  TIP3      1311            0.0000000000
     22649      1471  TIP3      H2             33.2834166055       -9.7941425677       30.5144022952  TIP3      1311            0.0000000000
     22650      1472  TIP3      OH2            26.5411854372      -12.0835022531       28.2693278553  TIP3      1312            0.0000000000
     22651      1472  TIP3      H1             26.7983152242      -11.3731957954       27.6500399546  TIP3      1312            0.0000000000
     22652      1472  TIP3      H2             26.5600582755      -12.8505325735       27.6385097498  TIP3      1312            0.0000000000
     22653      1473  TIP3      OH2            35.1091748009      -10.9035186902       25.6419375404  TIP3      1313            0.0000000000
     22654      1473  TIP3      H1             34.4348747524      -11.1300661877       26.3211475188  TIP3      1313            0.0000000000
     22655      1473  TIP3      H2             35.4815724432      -11.7925853048       25.5122601621  TIP3      1313            0.0000000000
     22656      1474  TIP3      OH2            23.5005976541       -9.8240816632       28.7703365378  TIP3      1314            0.0000000000
     22657      1474  TIP3      H1             23.2991597730      -10.6628054440       29.2210666559  TIP3      1314            0.0000000000
     22658      1474  TIP3      H2             23.7183147956      -10.1879009740       27.8722279219  TIP3      1314            0.0000000000
     22659      1475  TIP3      OH2            29.1152672388       -8.1815043647       27.7492740310  TIP3      1315            0.0000000000
     22660      1475  TIP3      H1             29.5955681519       -8.6261133418       28.4837457356  TIP3      1315            0.0000000000
     22661      1475  TIP3      H2             28.4120112409       -8.8463680752       27.6359342255  TIP3      1315            0.0000000000
     22662      1476  TIP3      OH2            26.1812522337      -13.0672868273       32.3354420402  TIP3      1316            0.0000000000
     22663      1476  TIP3      H1             25.7065554878      -12.6932063905       31.5645138597  TIP3      1316            0.0000000000
     22664      1476  TIP3      H2             25.4591694596      -13.2462129927       32.9691327204  TIP3      1316            0.0000000000
     22665      1477  TIP3      OH2            33.3586242868       -3.0677457724       26.3253255352  TIP3      1317            0.0000000000
     22666      1477  TIP3      H1             33.4040932868       -3.3008495058       25.3742365842  TIP3      1317            0.0000000000
     22667      1477  TIP3      H2             32.4066310320       -2.8682059705       26.4111904934  TIP3      1317            0.0000000000
     22668      1478  TIP3      OH2            27.7253063889       -5.9347692449       32.5114181127  TIP3      1318            0.0000000000
     22669      1478  TIP3      H1             27.1807776743       -5.1898047387       32.8565911215  TIP3      1318            0.0000000000
     22670      1478  TIP3      H2             28.5780836441       -5.9299421388       33.0006696355  TIP3      1318            0.0000000000
     22671      1479  TIP3      OH2            25.4279544249      -11.2821632247       30.4379013155  TIP3      1319            0.0000000000
     22672      1479  TIP3      H1             26.1239684884      -10.7889415484       30.9436847776  TIP3      1319            0.0000000000
     22673      1479  TIP3      H2             25.9556788591      -11.6291024917       29.6670026694  TIP3      1319            0.0000000000
     22674      1480  TIP3      OH2            26.4688984177       -3.6301389239       33.3970736342  TIP3      1320            0.0000000000
     22675      1480  TIP3      H1             26.3349805314       -2.7282389466       33.0214318507  TIP3      1320            0.0000000000
     22676      1480  TIP3      H2             25.5456885733       -3.7622692997       33.7338225835  TIP3      1320            0.0000000000
     22677      1481  TIP3      OH2            22.6274016587       -4.0040158683       24.0695193199  TIP3      1321            0.0000000000
     22678      1481  TIP3      H1             22.3155667455       -3.5325253534       23.2729710101  TIP3      1321            0.0000000000
     22679      1481  TIP3      H2             23.1054234871       -3.2710924062       24.5502052535  TIP3      1321            0.0000000000
     22680      1482  TIP3      OH2            29.4977160991      -15.6157216023       29.7489800118  TIP3      1322            0.0000000000
     22681      1482  TIP3      H1             29.2060199294      -16.4585115761       29.3490301058  TIP3      1322            0.0000000000
     22682      1482  TIP3      H2             28.6383690526      -15.3167929229       30.1514250332  TIP3      1322            0.0000000000
     22683      1483  TIP3      OH2            33.9558289313       -0.4569977980       26.3696090254  TIP3      1323            0.0000000000
     22684      1483  TIP3      H1             34.0286247908       -1.4123533616       26.5865127599  TIP3      1323            0.0000000000
     22685      1483  TIP3      H2             34.7559971366       -0.0850310821       26.7939056175  TIP3      1323            0.0000000000
     22686      1484  TIP3      OH2            31.6448680696       -6.8305373978       23.8838817274  TIP3      1324            0.0000000000
     22687      1484  TIP3      H1             31.5754499015       -5.9107163321       23.5811192981  TIP3      1324            0.0000000000
     22688      1484  TIP3      H2             32.5632276621       -7.0226264469       23.5791379216  TIP3      1324            0.0000000000
     22689      1485  TIP3      OH2            32.1049049632       -9.1233912657       20.7579650708  TIP3      1325            0.0000000000
     22690      1485  TIP3      H1             32.7869093495       -8.6029068643       21.2067667893  TIP3      1325            0.0000000000
     22691      1485  TIP3      H2             32.4772853738      -10.0306482285       20.7379189191  TIP3      1325            0.0000000000
     22692      1486  TIP3      OH2            27.6260656603       -6.2427871322       26.4219659436  TIP3      1326            0.0000000000
     22693      1486  TIP3      H1             26.8336793435       -6.6912746747       26.0660888622  TIP3      1326            0.0000000000
     22694      1486  TIP3      H2             28.0227986100       -6.9012992788       27.0363989588  TIP3      1326            0.0000000000
     22695      1487  TIP3      OH2            28.2928008006       -2.4207493759       29.4719048256  TIP3      1327            0.0000000000
     22696      1487  TIP3      H1             28.1800750178       -2.4018220538       28.4914752029  TIP3      1327            0.0000000000
     22697      1487  TIP3      H2             29.2106222215       -2.7872254278       29.5415799894  TIP3      1327            0.0000000000
     22698      1488  TIP3      OH2            27.9793906936       -7.5672947589       30.5076083773  TIP3      1328            0.0000000000
     22699      1488  TIP3      H1             28.8789445468       -7.2253505436       30.3145790934  TIP3      1328            0.0000000000
     22700      1488  TIP3      H2             27.7736953613       -6.9983988689       31.2926303020  TIP3      1328            0.0000000000
     22701      1489  TIP3      OH2            32.5508311694       -2.0506215055       31.8168340300  TIP3      1329            0.0000000000
     22702      1489  TIP3      H1             32.9560386961       -1.3333065300       32.3433521013  TIP3      1329            0.0000000000
     22703      1489  TIP3      H2             32.7505028936       -2.8633929219       32.3358237080  TIP3      1329            0.0000000000
     22704      1490  TIP3      OH2            28.0000966777       -3.4287058232       35.5418539220  TIP3      1330            0.0000000000
     22705      1490  TIP3      H1             27.5716754325       -2.6301189410       35.9138119205  TIP3      1330            0.0000000000
     22706      1490  TIP3      H2             27.3155939602       -3.6552021018       34.8738059488  TIP3      1330            0.0000000000
     22707      1491  TIP3      OH2            34.1832335222       -7.0216222544       22.9985061185  TIP3      1331            0.0000000000
     22708      1491  TIP3      H1             35.0548519399       -7.0836167170       23.4357255967  TIP3      1331            0.0000000000
     22709      1491  TIP3      H2             34.4378361098       -6.7700430617       22.0839501357  TIP3      1331            0.0000000000
     22710      1492  TIP3      OH2            25.4501518636       -6.8824864288       34.5211655262  TIP3      1332            0.0000000000
     22711      1492  TIP3      H1             25.7679915786       -6.4931881165       35.3487236446  TIP3      1332            0.0000000000
     22712      1492  TIP3      H2             24.4986342424       -6.7998966101       34.6984581582  TIP3      1332            0.0000000000
     22713      1493  TIP3      OH2            31.1334170091       -1.4050228765       25.9409465292  TIP3      1333            0.0000000000
     22714      1493  TIP3      H1             32.0553998979       -1.1664032123       26.1255648822  TIP3      1333            0.0000000000
     22715      1493  TIP3      H2             31.1848433046       -1.5863743207       24.9828627299  TIP3      1333            0.0000000000
     22716      1494  TIP3      OH2            25.8713248557       -1.5544170676       36.2655524106  TIP3      1334            0.0000000000
     22717      1494  TIP3      H1             26.2625236380       -0.6936888494       36.5487504662  TIP3      1334            0.0000000000
     22718      1494  TIP3      H2             25.2250004164       -1.7563415048       36.9528933621  TIP3      1334            0.0000000000
     22719      1495  TIP3      OH2            25.8739989695       -7.3219012503       24.4425413785  TIP3      1335            0.0000000000
     22720      1495  TIP3      H1             26.3319482577       -6.8969867899       23.6886103117  TIP3      1335            0.0000000000
     22721      1495  TIP3      H2             26.0962327835       -8.2550993683       24.2435614712  TIP3      1335            0.0000000000
     22722      1496  TIP3      OH2            22.0392627882       -4.7042974787       33.9560397225  TIP3      1336            0.0000000000
     22723      1496  TIP3      H1             21.7932205523       -4.6427690929       33.0015687524  TIP3      1336            0.0000000000
     22724      1496  TIP3      H2             22.4514548642       -5.5867761764       33.9660415317  TIP3      1336            0.0000000000
     22725      1497  TIP3      OH2            21.7012255894       -2.0646726090       30.3427966036  TIP3      1337            0.0000000000
     22726      1497  TIP3      H1             22.0818385949       -2.8867406368       30.6914001402  TIP3      1337            0.0000000000
     22727      1497  TIP3      H2             22.5600899861       -1.7073694674       30.0043792378  TIP3      1337            0.0000000000
     22728      1498  TIP3      OH2            31.4532363502       -0.9190584481       34.3385070021  TIP3      1338            0.0000000000
     22729      1498  TIP3      H1             32.1380939067       -0.2133493781       34.3753501941  TIP3      1338            0.0000000000
     22730      1498  TIP3      H2             30.6484057293       -0.4158515608       34.6017484712  TIP3      1338            0.0000000000
     22731      1499  TIP3      OH2            30.9522155521        2.2291360270       24.4928109724  TIP3      1339            0.0000000000
     22732      1499  TIP3      H1             31.4407373841        2.2008436694       23.6526896519  TIP3      1339            0.0000000000
     22733      1499  TIP3      H2             31.3332103032        3.0359548821       24.9298975478  TIP3      1339            0.0000000000
     22734      1500  TIP3      OH2            25.0650520452        0.9618577236       26.5970700088  TIP3      1340            0.0000000000
     22735      1500  TIP3      H1             25.4612821350        0.9584918719       27.4979801569  TIP3      1340            0.0000000000
     22736      1500  TIP3      H2             24.2347757520        0.4915803874       26.7783950821  TIP3      1340            0.0000000000
     22737      1501  TIP3      OH2            33.3399654337        1.0383825488       23.9818681405  TIP3      1341            0.0000000000
     22738      1501  TIP3      H1             32.9371397524        1.4552636123       24.7581017525  TIP3      1341            0.0000000000
     22739      1501  TIP3      H2             34.1661354415        0.7050920914       24.3715805527  TIP3      1341            0.0000000000
     22740      1502  TIP3      OH2            24.1376642366       -3.2685170375       34.4383707572  TIP3      1342            0.0000000000
     22741      1502  TIP3      H1             24.4827818316       -3.3302476049       35.3546934939  TIP3      1342            0.0000000000
     22742      1502  TIP3      H2             23.2723393323       -3.7257788113       34.4977337287  TIP3      1342            0.0000000000
     22743      1503  TIP3      OH2            27.1366461163      -14.7335130810       30.5985742945  TIP3      1343            0.0000000000
     22744      1503  TIP3      H1             26.2254557640      -14.8083061609       30.2441067007  TIP3      1343            0.0000000000
     22745      1503  TIP3      H2             27.0086746852      -14.1298967278       31.3666345764  TIP3      1343            0.0000000000
     22746      1504  TIP3      OH2            32.0534259209      -15.5238562720       33.8943420797  TIP3      1344            0.0000000000
     22747      1504  TIP3      H1             32.4810253679      -15.7833012425       34.7389316429  TIP3      1344            0.0000000000
     22748      1504  TIP3      H2             31.1059475218      -15.4706087337       34.1523270121  TIP3      1344            0.0000000000
     22749      1505  TIP3      OH2            27.1156250811       -9.7652621391       31.6375050312  TIP3      1345            0.0000000000
     22750      1505  TIP3      H1             26.8865817485       -9.5283457813       32.5676869688  TIP3      1345            0.0000000000
     22751      1505  TIP3      H2             27.5268340287       -8.9243266033       31.3515802431  TIP3      1345            0.0000000000
     22752      1506  TIP3      OH2            27.0851681630       -9.8677070541       26.8850274707  TIP3      1346            0.0000000000
     22753      1506  TIP3      H1             26.3262608902      -10.2367782541       26.3895920196  TIP3      1346            0.0000000000
     22754      1506  TIP3      H2             27.6805589531       -9.7803104849       26.0988986031  TIP3      1346            0.0000000000
     22755      1507  TIP3      OH2            32.8308040133       -8.8644906514       25.4573567422  TIP3      1347            0.0000000000
     22756      1507  TIP3      H1             32.3861212615       -8.4357057499       24.7090943678  TIP3      1347            0.0000000000
     22757      1507  TIP3      H2             33.2545475651       -9.6585698287       25.0783147439  TIP3      1347            0.0000000000
     22758      1508  TIP3      OH2            31.7051150347       -8.7650849475       37.2920472852  TIP3      1348            0.0000000000
     22759      1508  TIP3      H1             31.5808445214       -9.7128322748       37.0798700913  TIP3      1348            0.0000000000
     22760      1508  TIP3      H2             32.6412164705       -8.6824100688       37.5368778948  TIP3      1348            0.0000000000
     22761      1509  TIP3      OH2            33.1926172919      -10.3215975215       27.7652278736  TIP3      1349            0.0000000000
     22762      1509  TIP3      H1             33.6159622579       -9.4448575699       27.7490541293  TIP3      1349            0.0000000000
     22763      1509  TIP3      H2             33.8325206777      -10.8118422372       28.3202734560  TIP3      1349            0.0000000000
     22764      1510  TIP3      OH2            24.3255667400       -9.2312662145       33.2521200485  TIP3      1350            0.0000000000
     22765      1510  TIP3      H1             24.9246142082       -8.4943890623       33.5068631993  TIP3      1350            0.0000000000
     22766      1510  TIP3      H2             24.2637871266       -9.5745986537       34.1558646757  TIP3      1350            0.0000000000
     22767      1511  TIP3      OH2            22.0769329233      -12.7168173910       27.8238013958  TIP3      1351            0.0000000000
     22768      1511  TIP3      H1             22.8525764656      -13.2882184662       27.7299015545  TIP3      1351            0.0000000000
     22769      1511  TIP3      H2             21.9839196088      -12.3510182905       26.9232691778  TIP3      1351            0.0000000000
     22770      1512  TIP3      OH2            22.6862187776      -11.9643945535       22.6840304094  TIP3      1352            0.0000000000
     22771      1512  TIP3      H1             23.5718657129      -12.3952140165       22.7533793287  TIP3      1352            0.0000000000
     22772      1512  TIP3      H2             22.5939648507      -11.5948028145       23.5747025708  TIP3      1352            0.0000000000
     22773      1513  TIP3      OH2            33.0676186194       -8.2644103137       32.7149574364  TIP3      1353            0.0000000000
     22774      1513  TIP3      H1             33.8027735698       -8.8209611238       32.4088714033  TIP3      1353            0.0000000000
     22775      1513  TIP3      H2             32.3399456660       -8.8926657788       32.8611311817  TIP3      1353            0.0000000000
     22776      1514  TIP3      OH2            29.5773167889      -12.4399547312       27.6113073827  TIP3      1354            0.0000000000
     22777      1514  TIP3      H1             28.7701610264      -12.4248469496       28.1405339782  TIP3      1354            0.0000000000
     22778      1514  TIP3      H2             30.2373325989      -12.8139010016       28.2185832543  TIP3      1354            0.0000000000
     22779      1515  TIP3      OH2            24.0792530644      -11.0727265277       26.4524310958  TIP3      1355            0.0000000000
     22780      1515  TIP3      H1             23.3752928882      -10.9223700040       25.7902247646  TIP3      1355            0.0000000000
     22781      1515  TIP3      H2             24.5182778304      -11.8846161903       26.1463865328  TIP3      1355            0.0000000000
     22782      1516  TIP3      OH2            27.8608773443       -9.7572446387       24.3794855811  TIP3      1356            0.0000000000
     22783      1516  TIP3      H1             28.7913888610      -10.0580535237       24.4201677098  TIP3      1356            0.0000000000
     22784      1516  TIP3      H2             27.5630924971      -10.3405638316       23.6381342735  TIP3      1356            0.0000000000
     22785      1517  TIP3      OH2            33.7751343365      -13.6638384689       30.9844587733  TIP3      1357            0.0000000000
     22786      1517  TIP3      H1             33.3727521409      -13.2011815332       31.7438719448  TIP3      1357            0.0000000000
     22787      1517  TIP3      H2             33.7527352423      -12.9680454314       30.3080130456  TIP3      1357            0.0000000000
     22788      1518  TIP3      OH2            25.0030213675       -4.6382147829       36.8957915227  TIP3      1358            0.0000000000
     22789      1518  TIP3      H1             25.9099144847       -4.5460083009       37.2493137705  TIP3      1358            0.0000000000
     22790      1518  TIP3      H2             24.5616902408       -4.9055014559       37.7170704055  TIP3      1358            0.0000000000
     22791      1519  TIP3      OH2            30.9168486709       -9.7496929321       29.0678952905  TIP3      1359            0.0000000000
     22792      1519  TIP3      H1             31.5590289637       -9.8699470162       28.3265491253  TIP3      1359            0.0000000000
     22793      1519  TIP3      H2             31.3706286805      -10.3598082160       29.6906326627  TIP3      1359            0.0000000000
     22794      1520  TIP3      OH2            26.4075851110      -13.8727226562       26.2838745428  TIP3      1360            0.0000000000
     22795      1520  TIP3      H1             25.7979957327      -14.5996506225       26.5105456823  TIP3      1360            0.0000000000
     22796      1520  TIP3      H2             26.3731612147      -13.9459361109       25.2956449333  TIP3      1360            0.0000000000
     22797      1521  TIP3      OH2            29.3453378184      -11.0926386922       32.2985729176  TIP3      1361            0.0000000000
     22798      1521  TIP3      H1             28.7141451986      -10.4489962197       31.9086929286  TIP3      1361            0.0000000000
     22799      1521  TIP3      H2             30.2187076908      -10.7042617322       32.1578687132  TIP3      1361            0.0000000000
     22800      1522  TIP3      OH2            30.2167635192       -4.4842717611       23.3339593529  TIP3      1362            0.0000000000
     22801      1522  TIP3      H1             29.9109578183       -5.3974146476       23.4517886835  TIP3      1362            0.0000000000
     22802      1522  TIP3      H2             30.1028474671       -4.1407682574       24.2535301156  TIP3      1362            0.0000000000
     22803      1523  TIP3      OH2            33.2859786000      -11.5293508993       21.1056289370  TIP3      1363            0.0000000000
     22804      1523  TIP3      H1             32.7191984112      -11.6442390960       21.8811282079  TIP3      1363            0.0000000000
     22805      1523  TIP3      H2             34.0827750102      -11.1159096147       21.4848473678  TIP3      1363            0.0000000000
     22806      1524  TIP3      OH2            31.0911769637       -4.6000361425       34.6378084318  TIP3      1364            0.0000000000
     22807      1524  TIP3      H1             31.1380138589       -5.5151063245       34.9808444515  TIP3      1364            0.0000000000
     22808      1524  TIP3      H2             31.8737322365       -4.1386904245       34.9805275160  TIP3      1364            0.0000000000
     22809      1525  TIP3      OH2           -35.1387282084       -9.6979199090       22.6301099727  TIP3      1365            0.0000000000
     22810      1525  TIP3      H1            -34.7394029342       -9.8440555497       23.5066582493  TIP3      1365            0.0000000000
     22811      1525  TIP3      H2            -35.2947944963       -8.7426627986       22.6337588910  TIP3      1365            0.0000000000
     22812      1526  TIP3      OH2            25.3596085247       -5.9612763642       29.1079657902  TIP3      1366            0.0000000000
     22813      1526  TIP3      H1             25.9118183086       -5.1852286464       29.3698535148  TIP3      1366            0.0000000000
     22814      1526  TIP3      H2             24.9140229677       -6.1060355571       29.9586358480  TIP3      1366            0.0000000000
     22815      1527  TIP3      OH2            32.7883690938       -3.5742957479       23.6894900232  TIP3      1367            0.0000000000
     22816      1527  TIP3      H1             32.8463566769       -2.7099521620       23.2618745153  TIP3      1367            0.0000000000
     22817      1527  TIP3      H2             32.4102843791       -4.0664470645       22.9410122490  TIP3      1367            0.0000000000
     22818      1528  TIP3      OH2            22.2656703617       -7.3272006172       34.8589547763  TIP3      1368            0.0000000000
     22819      1528  TIP3      H1             21.9676616893       -7.9122729696       35.5962718840  TIP3      1368            0.0000000000
     22820      1528  TIP3      H2             21.6126476463       -7.5345657413       34.1763456078  TIP3      1368            0.0000000000
     22821      1529  TIP3      OH2            29.1536334072       -7.9082212142       36.5183569538  TIP3      1369            0.0000000000
     22822      1529  TIP3      H1             29.2798398906       -7.6685080529       35.5802519564  TIP3      1369            0.0000000000
     22823      1529  TIP3      H2             30.0721979947       -8.1627529490       36.7621403274  TIP3      1369            0.0000000000
     22824      1530  TIP3      OH2            33.9670320793       -2.8901017219       35.0974456753  TIP3      1370            0.0000000000
     22825      1530  TIP3      H1             33.6458782936       -1.9831922416       34.9766438262  TIP3      1370            0.0000000000
     22826      1530  TIP3      H2             34.7292266959       -2.7968464727       35.7138081620  TIP3      1370            0.0000000000
     22827      1531  TIP3      OH2            27.4883024756       -2.1354202849       26.9850824553  TIP3      1371            0.0000000000
     22828      1531  TIP3      H1             27.6218514386       -1.2209068167       26.6432332191  TIP3      1371            0.0000000000
     22829      1531  TIP3      H2             26.5192569439       -2.2105487829       26.9281804018  TIP3      1371            0.0000000000
     22830      1532  TIP3      OH2            23.2594557912       -6.9150794771       21.7204933322  TIP3      1372            0.0000000000
     22831      1532  TIP3      H1             23.9185405183       -6.2871614985       22.0684790726  TIP3      1372            0.0000000000
     22832      1532  TIP3      H2             22.3972600577       -6.4985780096       21.8552786436  TIP3      1372            0.0000000000
     22833      1533  TIP3      OH2            29.2197093598       -4.0835111204       25.7808240429  TIP3      1373            0.0000000000
     22834      1533  TIP3      H1             28.7012693942       -3.3304071692       26.1418434391  TIP3      1373            0.0000000000
     22835      1533  TIP3      H2             28.6784141857       -4.8260769146       26.1260045617  TIP3      1373            0.0000000000
     22836      1534  TIP3      OH2            29.6359949255       -0.2571279284       32.2749565784  TIP3      1374            0.0000000000
     22837      1534  TIP3      H1             29.6191296691        0.4753706181       32.9109645530  TIP3      1374            0.0000000000
     22838      1534  TIP3      H2             30.5176877222       -0.6148096002       32.4767325051  TIP3      1374            0.0000000000
     22839      1535  TIP3      OH2            27.6718723592        0.3316503156       25.9428076217  TIP3      1375            0.0000000000
     22840      1535  TIP3      H1             26.7102504293        0.5082790497       26.0562329137  TIP3      1375            0.0000000000
     22841      1535  TIP3      H2             27.9863523835        1.2516410967       25.9244522324  TIP3      1375            0.0000000000
     22842      1536  TIP3      OH2            33.1304066311       -4.6681016297       32.6911060564  TIP3      1376            0.0000000000
     22843      1536  TIP3      H1             32.5221105685       -4.7985518172       33.4374208186  TIP3      1376            0.0000000000
     22844      1536  TIP3      H2             33.0910830100       -5.5426478374       32.2522532325  TIP3      1376            0.0000000000
     22845      1537  TIP3      OH2            23.9467132116      -12.6108477394       34.3097706495  TIP3      1377            0.0000000000
     22846      1537  TIP3      H1             23.4413073815      -12.1325349606       35.0101620418  TIP3      1377            0.0000000000
     22847      1537  TIP3      H2             23.9011255702      -13.5121275391       34.6916820894  TIP3      1377            0.0000000000
     22848      1538  TIP3      OH2            23.6841746796       -0.4789502118       32.7762453480  TIP3      1378            0.0000000000
     22849      1538  TIP3      H1             24.5391450767       -0.9377526585       32.7336051053  TIP3      1378            0.0000000000
     22850      1538  TIP3      H2             23.6709750158       -0.1971596858       33.6983251748  TIP3      1378            0.0000000000
     22851      1539  TIP3      OH2            28.5223115545       -2.1597957868       22.8150717971  TIP3      1379            0.0000000000
     22852      1539  TIP3      H1             29.4945579892       -2.0873018638       22.7015505248  TIP3      1379            0.0000000000
     22853      1539  TIP3      H2             28.1884025998       -1.3324025329       22.4613577663  TIP3      1379            0.0000000000
     22854      1540  TIP3      OH2            24.7500161603       -4.9041243930       22.7681823824  TIP3      1380            0.0000000000
     22855      1540  TIP3      H1             24.1701246180       -4.5034952090       23.4459204601  TIP3      1380            0.0000000000
     22856      1540  TIP3      H2             24.5152415407       -4.3782260536       21.9714392554  TIP3      1380            0.0000000000
     22857      1541  TIP3      OH2            32.9690735789      -12.5124627152       33.5184518903  TIP3      1381            0.0000000000
     22858      1541  TIP3      H1             33.2784903995      -12.2881244174       34.4102218289  TIP3      1381            0.0000000000
     22859      1541  TIP3      H2             32.4459124416      -13.3081785746       33.6935017358  TIP3      1381            0.0000000000
     22860      1542  TIP3      OH2            32.6964729327      -12.5436806645       24.1725384350  TIP3      1382            0.0000000000
     22861      1542  TIP3      H1             32.8506947389      -13.1466693261       23.4254463682  TIP3      1382            0.0000000000
     22862      1542  TIP3      H2             33.4330308322      -12.7899949228       24.7564488668  TIP3      1382            0.0000000000
     22863      1543  TIP3      OH2            31.2588355571       -0.8912677572       23.1350161410  TIP3      1383            0.0000000000
     22864      1543  TIP3      H1             31.0209726353       -0.0404712428       23.5275578593  TIP3      1383            0.0000000000
     22865      1543  TIP3      H2             31.8406791881       -0.5180830722       22.4530709807  TIP3      1383            0.0000000000
     22866      1544  TIP3      OH2            30.3583829236      -11.0488802190       25.2689080079  TIP3      1384            0.0000000000
     22867      1544  TIP3      H1             31.2914945998      -11.2608797682       25.1171712222  TIP3      1384            0.0000000000
     22868      1544  TIP3      H2             30.1593448111      -11.6056913772       26.0478295763  TIP3      1384            0.0000000000
     22869      1545  TIP3      OH2            31.6524579183      -10.1324137265       34.4871153417  TIP3      1385            0.0000000000
     22870      1545  TIP3      H1             32.2813034277       -9.7656678573       35.1191796535  TIP3      1385            0.0000000000
     22871      1545  TIP3      H2             32.0780218637      -10.9579252062       34.1939741589  TIP3      1385            0.0000000000
     22872      1546  TIP3      OH2            30.8034785825      -14.4961966526       25.8489535734  TIP3      1386            0.0000000000
     22873      1546  TIP3      H1             30.8835570063      -14.2775688593       26.8046878251  TIP3      1386            0.0000000000
     22874      1546  TIP3      H2             31.7081575584      -14.2118489241       25.6096264481  TIP3      1386            0.0000000000
     22875      1547  TIP3      OH2            24.6236636510      -15.4273570344       29.8111800328  TIP3      1387            0.0000000000
     22876      1547  TIP3      H1             24.6455021635      -15.4334575191       28.8240173137  TIP3      1387            0.0000000000
     22877      1547  TIP3      H2             24.4688931999      -16.3911317676       29.9844608450  TIP3      1387            0.0000000000
     22878      1548  TIP3      OH2            23.7075590991       -1.8372756071       25.3033298173  TIP3      1388            0.0000000000
     22879      1548  TIP3      H1             22.9799214557       -1.4649971396       25.8320115918  TIP3      1388            0.0000000000
     22880      1548  TIP3      H2             23.8427987244       -1.0912774685       24.6696512215  TIP3      1388            0.0000000000
     22881      1549  TIP3      OH2            22.4893863457        1.0303393421       36.6500097178  TIP3      1389            0.0000000000
     22882      1549  TIP3      H1             23.1095822970        1.0891875558       37.3963898889  TIP3      1389            0.0000000000
     22883      1549  TIP3      H2             22.1265973993        0.1123965168       36.7064608914  TIP3      1389            0.0000000000
     22884      1550  TIP3      OH2            27.9517062253       -0.1674605173       38.8890691695  TIP3      1390            0.0000000000
     22885      1550  TIP3      H1             28.6072066120       -0.8604097498       39.1041306776  TIP3      1390            0.0000000000
     22886      1550  TIP3      H2             28.0728916368       -0.1273332103       37.9153760591  TIP3      1390            0.0000000000
     22887      1551  TIP3      OH2            33.5404584760       -1.0717928248       37.5624099990  TIP3      1391            0.0000000000
     22888      1551  TIP3      H1             33.1637613111       -1.9221463853       37.8798396687  TIP3      1391            0.0000000000
     22889      1551  TIP3      H2             34.4630674897       -1.3993430151       37.4559072867  TIP3      1391            0.0000000000
     22890      1552  TIP3      OH2            22.4813033790       -5.4610941533       37.4885875516  TIP3      1392            0.0000000000
     22891      1552  TIP3      H1             23.0067552384       -6.0595059464       36.9153460858  TIP3      1392            0.0000000000
     22892      1552  TIP3      H2             22.1240862576       -4.7826215755       36.8606341345  TIP3      1392            0.0000000000
     22893      1553  TIP3      OH2            26.7639868620       -4.9470919096       20.9543583289  TIP3      1393            0.0000000000
     22894      1553  TIP3      H1             27.2710239654       -5.7709878142       20.8574794128  TIP3      1393            0.0000000000
     22895      1553  TIP3      H2             26.7242684178       -4.5102124028       20.0891162022  TIP3      1393            0.0000000000
     22896      1554  TIP3      OH2            29.2127270211       -5.2266930578       37.1449300912  TIP3      1394            0.0000000000
     22897      1554  TIP3      H1             28.8112852934       -4.7575734660       36.3786992512  TIP3      1394            0.0000000000
     22898      1554  TIP3      H2             29.0410041450       -6.1750587870       36.9365573338  TIP3      1394            0.0000000000
     22899      1555  TIP3      OH2            23.8971195641       -7.7422919747       37.3608822410  TIP3      1395            0.0000000000
     22900      1555  TIP3      H1             23.9819377169       -8.6748661363       37.5975255976  TIP3      1395            0.0000000000
     22901      1555  TIP3      H2             23.9107087373       -7.3504359669       38.2565212221  TIP3      1395            0.0000000000
     22902      1556  TIP3      OH2            28.1405845714       -6.8235665345       22.4620713733  TIP3      1396            0.0000000000
     22903      1556  TIP3      H1             27.5161362190       -7.5081394149       22.1005107656  TIP3      1396            0.0000000000
     22904      1556  TIP3      H2             28.9794555943       -7.2786498263       22.3170017310  TIP3      1396            0.0000000000
     22905      1557  TIP3      OH2            27.0099954355       -9.0295529896       34.2344461427  TIP3      1397            0.0000000000
     22906      1557  TIP3      H1             26.6720914865       -8.7170005303       35.0990153825  TIP3      1397            0.0000000000
     22907      1557  TIP3      H2             27.7056906891       -8.3632829815       34.0890321340  TIP3      1397            0.0000000000
     22908      1558  TIP3      OH2            32.7888741848       -6.2479905042       38.4758540307  TIP3      1398            0.0000000000
     22909      1558  TIP3      H1             33.7171582208       -6.1151279688       38.1681083165  TIP3      1398            0.0000000000
     22910      1558  TIP3      H2             32.9498954996       -7.0688930602       38.9627918123  TIP3      1398            0.0000000000
     22911      1559  TIP3      OH2            28.2584180503      -11.1154820511       35.4927667151  TIP3      1399            0.0000000000
     22912      1559  TIP3      H1             28.3268031801      -11.8732836251       34.8790663245  TIP3      1399            0.0000000000
     22913      1559  TIP3      H2             27.7687184086      -10.4712132239       34.9499902009  TIP3      1399            0.0000000000
     22914      1560  TIP3      OH2            28.6225458805      -13.1648235576       33.6704953310  TIP3      1400            0.0000000000
     22915      1560  TIP3      H1             29.0818796817      -12.4966006354       33.0996475171  TIP3      1400            0.0000000000
     22916      1560  TIP3      H2             27.7139422103      -13.1011167195       33.3274077775  TIP3      1400            0.0000000000
     22917      1561  TIP3      OH2            29.9410801823       -7.1005258172       34.0705094474  TIP3      1401            0.0000000000
     22918      1561  TIP3      H1             30.3423066828       -7.9822640381       34.1716032776  TIP3      1401            0.0000000000
     22919      1561  TIP3      H2             30.4548603747       -6.7764278773       33.2854485150  TIP3      1401            0.0000000000
     22920      1562  TIP3      OH2            34.3458918916       -9.7984243854       36.8629390242  TIP3      1402            0.0000000000
     22921      1562  TIP3      H1             33.5743331647      -10.2704530572       37.2195222568  TIP3      1402            0.0000000000
     22922      1562  TIP3      H2             34.7510748457       -9.3884703218       37.6581175964  TIP3      1402            0.0000000000
     22923      1563  TIP3      OH2            26.3739918840      -10.4420918241       37.5387526740  TIP3      1403            0.0000000000
     22924      1563  TIP3      H1             25.6122835919      -11.0684937013       37.5258472778  TIP3      1403            0.0000000000
     22925      1563  TIP3      H2             27.0355378572      -10.8366351492       36.9402345330  TIP3      1403            0.0000000000
     22926      1564  TIP3      OH2            29.3099998170      -15.7644081669       33.5385453843  TIP3      1404            0.0000000000
     22927      1564  TIP3      H1             29.0101772284      -14.8224718068       33.5817845387  TIP3      1404            0.0000000000
     22928      1564  TIP3      H2             28.4642678966      -16.2120179270       33.3795945158  TIP3      1404            0.0000000000
     22929      1565  TIP3      OH2            30.1720629283      -11.1494941941       37.2811637541  TIP3      1405            0.0000000000
     22930      1565  TIP3      H1             29.6212055747      -10.4536969464       37.6613588446  TIP3      1405            0.0000000000
     22931      1565  TIP3      H2             29.5758151690      -11.4589846881       36.5595866953  TIP3      1405            0.0000000000
     22932      1566  TIP3      OH2            32.7284936955      -12.1489633717       36.6952628014  TIP3      1406            0.0000000000
     22933      1566  TIP3      H1             31.7864943041      -12.3717910901       36.8331773189  TIP3      1406            0.0000000000
     22934      1566  TIP3      H2             33.2148161246      -12.7424360611       37.3010518113  TIP3      1406            0.0000000000
     22935      1567  TIP3      OH2            33.9329181123      -13.8368247552       38.7007877265  TIP3      1407            0.0000000000
     22936      1567  TIP3      H1             34.0298092349      -14.8107592873       38.5575264945  TIP3      1407            0.0000000000
     22937      1567  TIP3      H2             33.4008512058      -13.8436833074       39.5229366807  TIP3      1407            0.0000000000
     22938      1568  TIP3      OH2            24.2812946409      -12.1879295393       37.7419304723  TIP3      1408            0.0000000000
     22939      1568  TIP3      H1             24.1305346299      -13.0308754422       37.2886218590  TIP3      1408            0.0000000000
     22940      1568  TIP3      H2             24.0477429267      -12.4343412309       38.6670993802  TIP3      1408            0.0000000000
     22941      1569  TIP3      OH2            28.8154348784      -15.8295727955       36.3103569536  TIP3      1409            0.0000000000
     22942      1569  TIP3      H1             29.3596523973      -16.4996276267       36.7568979940  TIP3      1409            0.0000000000
     22943      1569  TIP3      H2             29.0722166300      -15.9132448192       35.3722604280  TIP3      1409            0.0000000000
     22944      1570  TIP3      OH2            29.1933828118      -13.7158087465       38.0395576732  TIP3      1410            0.0000000000
     22945      1570  TIP3      H1             28.9198174934      -14.6301270718       37.8228151309  TIP3      1410            0.0000000000
     22946      1570  TIP3      H2             28.3383216962      -13.2398730568       38.1419757891  TIP3      1410            0.0000000000
     22947      1571  TIP3      OH2            23.1250890670       -3.1174170893       21.1772696628  TIP3      1411            0.0000000000
     22948      1571  TIP3      H1             23.7491458504       -2.3834484130       20.9809566332  TIP3      1411            0.0000000000
     22949      1571  TIP3      H2             22.4474301191       -2.7642034578       20.5783775031  TIP3      1411            0.0000000000
     22950      1572  TIP3      OH2            21.5528233174        2.1436862883       26.0650446206  TIP3      1412            0.0000000000
     22951      1572  TIP3      H1             20.7731146960        1.7573089106       25.6291467147  TIP3      1412            0.0000000000
     22952      1572  TIP3      H2             21.8001535348        1.4671265064       26.7310941049  TIP3      1412            0.0000000000
     22953      1573  TIP3      OH2            22.6105790696        0.5165046446       28.0085811906  TIP3      1413            0.0000000000
     22954      1573  TIP3      H1             22.9307550427       -0.3906643021       28.1634000081  TIP3      1413            0.0000000000
     22955      1573  TIP3      H2             22.7798415133        0.8946331356       28.8893865004  TIP3      1413            0.0000000000
     22956      1574  TIP3      OH2            22.1953614909       -7.0327641439       30.9000325472  TIP3      1414            0.0000000000
     22957      1574  TIP3      H1             21.8509397939       -6.4594445231       30.1847524930  TIP3      1414            0.0000000000
     22958      1574  TIP3      H2             23.1069194786       -6.6969167009       31.0209756536  TIP3      1414            0.0000000000
     22959      1575  TIP3      OH2            22.0335952337      -11.4886081106       36.2761588525  TIP3      1415            0.0000000000
     22960      1575  TIP3      H1             22.6885996558      -11.2848623001       36.9806214051  TIP3      1415            0.0000000000
     22961      1575  TIP3      H2             21.3945207174      -12.0179052677       36.8042077268  TIP3      1415            0.0000000000
     22962      1576  TIP3      OH2            23.3778178821      -12.9482181184       30.4555450174  TIP3      1416            0.0000000000
     22963      1576  TIP3      H1             23.5306010451      -13.9068577504       30.3171606326  TIP3      1416            0.0000000000
     22964      1576  TIP3      H2             24.1187865547      -12.5272051158       29.9762571701  TIP3      1416            0.0000000000
     22965      1577  TIP3      OH2            21.6423206898       -9.6575028196       30.7696600635  TIP3      1417            0.0000000000
     22966      1577  TIP3      H1             21.9750605664       -9.4894082823       29.8588520259  TIP3      1417            0.0000000000
     22967      1577  TIP3      H2             21.6516192881       -8.7277778631       31.1062677276  TIP3      1417            0.0000000000
     22968      1578  TIP3      OH2            21.7352679290      -13.4439801157       24.9442521770  TIP3      1418            0.0000000000
     22969      1578  TIP3      H1             20.8565827456      -13.4485202146       24.5099986727  TIP3      1418            0.0000000000
     22970      1578  TIP3      H2             22.1940132281      -14.1217094348       24.4096247943  TIP3      1418            0.0000000000
     22971      1579  TIP3      OH2            21.8173118575      -15.1260120783       33.2123123463  TIP3      1419            0.0000000000
     22972      1579  TIP3      H1             21.2885396054      -15.4639807271       33.9634474830  TIP3      1419            0.0000000000
     22973      1579  TIP3      H2             21.5119858095      -14.2196442387       33.1216533088  TIP3      1419            0.0000000000
     22974      1580  TIP3      OH2            23.3649963498       -1.9141538276       37.6264848563  TIP3      1420            0.0000000000
     22975      1580  TIP3      H1             23.4329908754       -1.6014410128       36.7159784129  TIP3      1420            0.0000000000
     22976      1580  TIP3      H2             23.7605314072       -1.1594838067       38.1148840692  TIP3      1420            0.0000000000
     22977      1581  TIP3      OH2            26.8978664238       -0.9858811856       33.0606080104  TIP3      1421            0.0000000000
     22978      1581  TIP3      H1             27.1224422664       -0.1176370551       32.6674068472  TIP3      1421            0.0000000000
     22979      1581  TIP3      H2             27.1956720998       -0.8536529145       33.9827305994  TIP3      1421            0.0000000000
     22980      1582  TIP3      OH2            31.8018713545        1.1740273257       36.0947855763  TIP3      1422            0.0000000000
     22981      1582  TIP3      H1             31.0045224871        0.8964196851       36.5850975949  TIP3      1422            0.0000000000
     22982      1582  TIP3      H2             32.4857986897        1.1623853474       36.7845904326  TIP3      1422            0.0000000000
     22983      1583  TIP3      OH2            34.0430081915        2.7298300033       35.3806190090  TIP3      1423            0.0000000000
     22984      1583  TIP3      H1             34.8023895906        2.1400960935       35.4257041141  TIP3      1423            0.0000000000
     22985      1583  TIP3      H2             33.7827462926        2.7588562348       36.3285991443  TIP3      1423            0.0000000000
     22986      1584  TIP3      OH2            23.9990355478        2.6321309008       33.2838859129  TIP3      1424            0.0000000000
     22987      1584  TIP3      H1             23.1499282833        3.0681040454       33.0706683029  TIP3      1424            0.0000000000
     22988      1584  TIP3      H2             24.0806670476        2.7671105420       34.2429795016  TIP3      1424            0.0000000000
     22989      1585  TIP3      OH2            26.5688729629        1.7992113021       32.3143278009  TIP3      1425            0.0000000000
     22990      1585  TIP3      H1             25.6463548861        1.9096816905       32.6192756650  TIP3      1425            0.0000000000
     22991      1585  TIP3      H2             26.5739459953        2.4626251024       31.6069053067  TIP3      1425            0.0000000000
     22992      1586  TIP3      OH2            31.5226272716        2.0441120575       31.7660418351  TIP3      1426            0.0000000000
     22993      1586  TIP3      H1             30.6545205182        2.3849976463       31.4839476713  TIP3      1426            0.0000000000
     22994      1586  TIP3      H2             31.6301252906        2.5479099769       32.6069313423  TIP3      1426            0.0000000000
     22995      1587  TIP3      OH2            33.8979367095        0.5193254617       33.2682284661  TIP3      1427            0.0000000000
     22996      1587  TIP3      H1             33.5281863947        1.3018577600       32.8310686570  TIP3      1427            0.0000000000
     22997      1587  TIP3      H2             34.8543818425        0.7418922441       33.3060243850  TIP3      1427            0.0000000000
     22998      1588  TIP3      OH2            23.5748441899        1.1360550815       30.5180634964  TIP3      1428            0.0000000000
     22999      1588  TIP3      H1             23.3914527488        0.7252894347       31.3969180860  TIP3      1428            0.0000000000
     23000      1588  TIP3      H2             24.3223772070        0.5619319081       30.2478590623  TIP3      1428            0.0000000000
     23001      1589  TIP3      OH2            26.3848334643        0.6275221434       28.9933618805  TIP3      1429            0.0000000000
     23002      1589  TIP3      H1             25.9045882551       -0.2281053836       29.1336370119  TIP3      1429            0.0000000000
     23003      1589  TIP3      H2             27.2841650582        0.4382744802       29.3043721272  TIP3      1429            0.0000000000
     23004      1590  TIP3      OH2            28.9542303642        0.1299163258       29.7505868967  TIP3      1430            0.0000000000
     23005      1590  TIP3      H1             28.5802531675       -0.7699092398       29.6292082949  TIP3      1430            0.0000000000
     23006      1590  TIP3      H2             29.0925874769        0.0970945007       30.7249463241  TIP3      1430            0.0000000000
     23007      1591  TIP3      OH2            31.6495023405      -14.5621898460       28.4040633090  TIP3      1431            0.0000000000
     23008      1591  TIP3      H1             30.9496036787      -14.8605151830       29.0092735446  TIP3      1431            0.0000000000
     23009      1591  TIP3      H2             32.3393809916      -15.1917770724       28.6267967135  TIP3      1431            0.0000000000
     23010      1592  TIP3      OH2            24.4180490510      -15.5436123857       27.1386220972  TIP3      1432            0.0000000000
     23011      1592  TIP3      H1             23.5349346652      -15.6301843153       26.7440097205  TIP3      1432            0.0000000000
     23012      1592  TIP3      H2             24.7669060284      -16.4364438352       26.8953665486  TIP3      1432            0.0000000000
     23013      1593  TIP3      OH2            22.7418262803      -15.2382903257       22.5204271699  TIP3      1433            0.0000000000
     23014      1593  TIP3      H1             23.6130940280      -14.7974574665       22.6689685526  TIP3      1433            0.0000000000
     23015      1593  TIP3      H2             22.9716707035      -16.1803518054       22.6695683672  TIP3      1433            0.0000000000
     23016      1594  TIP3      OH2            28.9257557481      -16.1350323990       27.1502339358  TIP3      1434            0.0000000000
     23017      1594  TIP3      H1             29.2937213425      -15.7467177490       26.3443404037  TIP3      1434            0.0000000000
     23018      1594  TIP3      H2             28.9140713495      -15.3561623597       27.7170583919  TIP3      1434            0.0000000000
     23019      1595  TIP3      OH2            34.4954892187      -15.9282324397       28.7450973560  TIP3      1435            0.0000000000
     23020      1595  TIP3      H1             34.4678765224      -15.1589449356       28.1318275920  TIP3      1435            0.0000000000
     23021      1595  TIP3      H2             33.7478490915      -16.4684285505       28.4040857166  TIP3      1435            0.0000000000
     23022      1596  TIP3      OH2            23.0154300422        0.2962542588       23.7852320940  TIP3      1436            0.0000000000
     23023      1596  TIP3      H1             22.1197957487        0.0259706284       23.5378971051  TIP3      1436            0.0000000000
     23024      1596  TIP3      H2             22.8613707224        1.2267135132       23.9867637769  TIP3      1436            0.0000000000
     23025      1597  TIP3      OH2            25.1761988581      -13.2297650109       20.2671878041  TIP3      1437            0.0000000000
     23026      1597  TIP3      H1             25.3733852310      -13.6695972397       21.1204489067  TIP3      1437            0.0000000000
     23027      1597  TIP3      H2             25.3738681073      -12.3170988701       20.5534893750  TIP3      1437            0.0000000000
     23028      1598  TIP3      OH2            30.0694631480      -13.3983571082       23.5972104785  TIP3      1438            0.0000000000
     23029      1598  TIP3      H1             29.7959149407      -13.7749293016       24.4528482327  TIP3      1438            0.0000000000
     23030      1598  TIP3      H2             30.3176822416      -12.5048226480       23.8991413528  TIP3      1438            0.0000000000
     23031      1599  TIP3      OH2            31.3447394760        1.3812788796       21.3153184698  TIP3      1439            0.0000000000
     23032      1599  TIP3      H1             32.1531316120        1.8213506721       21.6224419807  TIP3      1439            0.0000000000
     23033      1599  TIP3      H2             31.4120744614        1.4860239138       20.3462043752  TIP3      1439            0.0000000000
     23034      1600  TIP3      OH2            23.9303003889      -14.7932788188       35.9815643148  TIP3      1440            0.0000000000
     23035      1600  TIP3      H1             23.0991039189      -14.9736566471       36.4510025193  TIP3      1440            0.0000000000
     23036      1600  TIP3      H2             24.6000673702      -14.9777257959       36.6930972554  TIP3      1440            0.0000000000
     23037      1601  TIP3      OH2            25.6558717005      -15.5973764121       38.0607503402  TIP3      1441            0.0000000000
     23038      1601  TIP3      H1             26.5847043604      -15.7859415818       37.8182120714  TIP3      1441            0.0000000000
     23039      1601  TIP3      H2             25.4719441414      -16.3073646243       38.7222626491  TIP3      1441            0.0000000000
     23040      1602  TIP3      OH2            34.3022532422      -16.5407774282       38.6365775919  TIP3      1442            0.0000000000
     23041      1602  TIP3      H1             34.5048467711      -16.9259472559       39.5213325553  TIP3      1442            0.0000000000
     23042      1602  TIP3      H2             35.2058464748      -16.5792089740       38.2469016112  TIP3      1442            0.0000000000
     23043      1603  TIP3      OH2           -22.9070858138       12.7729383326       26.6699011103  TIP3      1443            0.0000000000
     23044      1603  TIP3      H1            -23.3141139235       13.5043796477       27.1671620403  TIP3      1443            0.0000000000
     23045      1603  TIP3      H2            -23.5960677408       12.0816961116       26.6186230922  TIP3      1443            0.0000000000
     23046      1604  TIP3      OH2           -24.2722972839       11.5367001088       29.9785084162  TIP3      1444            0.0000000000
     23047      1604  TIP3      H1            -24.2714774379       11.3901463980       30.9388449580  TIP3      1444            0.0000000000
     23048      1604  TIP3      H2            -25.0325653356       11.0223910719       29.6720948804  TIP3      1444            0.0000000000
     23049      1605  TIP3      OH2           -31.5843001675       11.5140102606       31.3379307936  TIP3      1445            0.0000000000
     23050      1605  TIP3      H1            -31.7254177334       10.8054945998       31.9962398941  TIP3      1445            0.0000000000
     23051      1605  TIP3      H2            -31.0482043276       12.1322793188       31.8703216112  TIP3      1445            0.0000000000
     23052      1606  TIP3      OH2           -21.6548564300       14.6469523636       28.4403887692  TIP3      1446            0.0000000000
     23053      1606  TIP3      H1            -21.5892219840       13.7359862696       28.7525400464  TIP3      1446            0.0000000000
     23054      1606  TIP3      H2            -20.7478206508       14.9959918584       28.5027128494  TIP3      1446            0.0000000000
     23055      1607  TIP3      OH2           -31.9789542823       15.3799824493       31.3432107845  TIP3      1447            0.0000000000
     23056      1607  TIP3      H1            -31.8998705774       14.7691287504       30.5700883554  TIP3      1447            0.0000000000
     23057      1607  TIP3      H2            -31.2602636495       16.0134211571       31.0702812235  TIP3      1447            0.0000000000
     23058      1608  TIP3      OH2           -34.1098696853       10.2756215213       25.8872112422  TIP3      1448            0.0000000000
     23059      1608  TIP3      H1            -34.6385778799       10.7495030349       26.5531410897  TIP3      1448            0.0000000000
     23060      1608  TIP3      H2            -34.7674720103       10.0040174169       25.2190128623  TIP3      1448            0.0000000000
     23061      1609  TIP3      OH2           -34.1121963556       11.7782068794       28.2320314325  TIP3      1449            0.0000000000
     23062      1609  TIP3      H1            -33.8380128658       10.8532193739       28.3848289335  TIP3      1449            0.0000000000
     23063      1609  TIP3      H2            -33.2635813729       12.1867345179       27.9911919125  TIP3      1449            0.0000000000
     23064      1610  TIP3      OH2           -23.8981192114       20.1608030453       28.6328088057  TIP3      1450            0.0000000000
     23065      1610  TIP3      H1            -24.2917801046       19.2760134095       28.6881625373  TIP3      1450            0.0000000000
     23066      1610  TIP3      H2            -24.4135163942       20.7019749975       29.2614611352  TIP3      1450            0.0000000000
     23067      1611  TIP3      OH2           -26.3532906408       14.0670505419       31.5324963858  TIP3      1451            0.0000000000
     23068      1611  TIP3      H1            -26.4234072565       14.6867437554       30.7637056232  TIP3      1451            0.0000000000
     23069      1611  TIP3      H2            -25.4166410110       14.2038705191       31.7722866713  TIP3      1451            0.0000000000
     23070      1612  TIP3      OH2           -17.4415444334        5.7284423750       31.2689072157  TIP3      1452            0.0000000000
     23071      1612  TIP3      H1            -17.3134575669        6.3120775432       32.0572806438  TIP3      1452            0.0000000000
     23072      1612  TIP3      H2            -16.5861749193        5.9400686863       30.8451347209  TIP3      1452            0.0000000000
     23073      1613  TIP3      OH2           -22.6628713611        8.7415475839       31.1009106789  TIP3      1453            0.0000000000
     23074      1613  TIP3      H1            -22.4842986901        7.8049795718       31.2535943461  TIP3      1453            0.0000000000
     23075      1613  TIP3      H2            -23.1338438016        8.7096412872       30.2388586916  TIP3      1453            0.0000000000
     23076      1614  TIP3      OH2           -29.8147364689        6.6520749063       27.9728197148  TIP3      1454            0.0000000000
     23077      1614  TIP3      H1            -29.6146713448        7.4715953474       27.5010864780  TIP3      1454            0.0000000000
     23078      1614  TIP3      H2            -30.2990531424        6.1385485495       27.2809448768  TIP3      1454            0.0000000000
     23079      1615  TIP3      OH2           -21.4477139999        7.4468651020       27.1385057689  TIP3      1455            0.0000000000
     23080      1615  TIP3      H1            -20.9701923401        6.8142680778       27.7241022088  TIP3      1455            0.0000000000
     23081      1615  TIP3      H2            -22.1256105305        6.8910285178       26.7063018823  TIP3      1455            0.0000000000
     23082      1616  TIP3      OH2           -32.7797760917        9.2212597093       28.8905929639  TIP3      1456            0.0000000000
     23083      1616  TIP3      H1            -32.1911729545        8.8892285662       29.5917574803  TIP3      1456            0.0000000000
     23084      1616  TIP3      H2            -32.4292205437        8.7354924683       28.1267819559  TIP3      1456            0.0000000000
     23085      1617  TIP3      OH2           -28.2087176128       10.7113524119       28.2205342026  TIP3      1457            0.0000000000
     23086      1617  TIP3      H1            -27.4197279265       10.1500634406       28.4148107181  TIP3      1457            0.0000000000
     23087      1617  TIP3      H2            -28.6764044644       10.1433072172       27.5546417122  TIP3      1457            0.0000000000
     23088      1618  TIP3      OH2           -17.0492156104        7.2199986262       33.4818067934  TIP3      1458            0.0000000000
     23089      1618  TIP3      H1            -17.6458148874        8.0032755605       33.3710310767  TIP3      1458            0.0000000000
     23090      1618  TIP3      H2            -16.6796615795        7.3721033465       34.3666972381  TIP3      1458            0.0000000000
     23091      1619  TIP3      OH2           -31.1674461839        5.7440640211       32.2389303125  TIP3      1459            0.0000000000
     23092      1619  TIP3      H1            -31.0758496805        6.2856177588       31.4307476360  TIP3      1459            0.0000000000
     23093      1619  TIP3      H2            -31.9571930869        6.1025471996       32.6593670290  TIP3      1459            0.0000000000
     23094      1620  TIP3      OH2           -23.8277347262       15.0742787235       25.0397508711  TIP3      1460            0.0000000000
     23095      1620  TIP3      H1            -24.7564307988       14.8103118466       25.0754691824  TIP3      1460            0.0000000000
     23096      1620  TIP3      H2            -23.8090030714       15.7950997160       25.6952019549  TIP3      1460            0.0000000000
     23097      1621  TIP3      OH2           -28.5835040816       13.1064141394       32.5245412854  TIP3      1461            0.0000000000
     23098      1621  TIP3      H1            -29.1053162620       13.9091340734       32.7388691902  TIP3      1461            0.0000000000
     23099      1621  TIP3      H2            -27.7345597817       13.5157555831       32.2125711070  TIP3      1461            0.0000000000
     23100      1622  TIP3      OH2           -19.7683335742        6.2375804318       28.9235242154  TIP3      1462            0.0000000000
     23101      1622  TIP3      H1            -20.3174610704        5.8327271260       29.6105201492  TIP3      1462            0.0000000000
     23102      1622  TIP3      H2            -19.1578798129        6.7819521580       29.4718076915  TIP3      1462            0.0000000000
     23103      1623  TIP3      OH2           -30.9476279557        7.6365861427       30.2565216779  TIP3      1463            0.0000000000
     23104      1623  TIP3      H1            -30.1788150349        8.1226844551       30.6274985625  TIP3      1463            0.0000000000
     23105      1623  TIP3      H2            -30.5857331052        7.2226925693       29.4329617370  TIP3      1463            0.0000000000
     23106      1624  TIP3      OH2           -29.6741840941       15.5054871441       33.0542158228  TIP3      1464            0.0000000000
     23107      1624  TIP3      H1            -29.3069728075       16.0606788066       32.3262883734  TIP3      1464            0.0000000000
     23108      1624  TIP3      H2            -30.5654438558       15.3974234245       32.6855952459  TIP3      1464            0.0000000000
     23109      1625  TIP3      OH2           -33.6004627827       14.7014984859       23.8204383674  TIP3      1465            0.0000000000
     23110      1625  TIP3      H1            -33.7739823541       15.1592868782       22.9866888954  TIP3      1465            0.0000000000
     23111      1625  TIP3      H2            -33.3515180137       15.4162968411       24.4500113734  TIP3      1465            0.0000000000
     23112      1626  TIP3      OH2           -21.0593098400       16.4807409620       31.4457134980  TIP3      1466            0.0000000000
     23113      1626  TIP3      H1            -21.8255081501       15.9399628056       31.1838812184  TIP3      1466            0.0000000000
     23114      1626  TIP3      H2            -20.4750090236       16.4653897512       30.6443097807  TIP3      1466            0.0000000000
     23115      1627  TIP3      OH2           -19.9082711600        4.7500765948       32.1044740867  TIP3      1467            0.0000000000
     23116      1627  TIP3      H1            -20.6393671390        5.1168119764       31.5721285930  TIP3      1467            0.0000000000
     23117      1627  TIP3      H2            -19.1065175080        5.0778122997       31.6303681327  TIP3      1467            0.0000000000
     23118      1628  TIP3      OH2           -27.0927545629        3.1974777363       29.7781059894  TIP3      1468            0.0000000000
     23119      1628  TIP3      H1            -27.3412913945        2.2998598955       29.4946389322  TIP3      1468            0.0000000000
     23120      1628  TIP3      H2            -27.9662860686        3.6677601625       29.7536958657  TIP3      1468            0.0000000000
     23121      1629  TIP3      OH2           -21.7521069891       18.3874600059       26.4825261773  TIP3      1469            0.0000000000
     23122      1629  TIP3      H1            -21.2139706062       17.5754813824       26.2904574032  TIP3      1469            0.0000000000
     23123      1629  TIP3      H2            -21.0283070949       19.0214516572       26.6851372787  TIP3      1469            0.0000000000
     23124      1630  TIP3      OH2           -20.2401447709       16.3209777498       25.6812777342  TIP3      1470            0.0000000000
     23125      1630  TIP3      H1            -20.4806707736       15.4349003726       25.3531555314  TIP3      1470            0.0000000000
     23126      1630  TIP3      H2            -19.6716986653       16.1028268974       26.4478661340  TIP3      1470            0.0000000000
     23127      1631  TIP3      OH2           -19.0434653047       15.0549038097       34.5362663910  TIP3      1471            0.0000000000
     23128      1631  TIP3      H1            -18.6811085778       14.3295095021       33.9780545849  TIP3      1471            0.0000000000
     23129      1631  TIP3      H2            -19.2742583387       15.7157253536       33.8344732167  TIP3      1471            0.0000000000
     23130      1632  TIP3      OH2           -24.3362212450       12.1064732475       24.0954336931  TIP3      1472            0.0000000000
     23131      1632  TIP3      H1            -25.1192438983       12.5560017831       23.7181813568  TIP3      1472            0.0000000000
     23132      1632  TIP3      H2            -23.8658102762       12.8588484436       24.4998498534  TIP3      1472            0.0000000000
     23133      1633  TIP3      OH2           -24.3361927906       10.2081514701       21.5675689913  TIP3      1473            0.0000000000
     23134      1633  TIP3      H1            -23.6968385028       10.0101451186       22.2706150714  TIP3      1473            0.0000000000
     23135      1633  TIP3      H2            -23.8950224894        9.9538316743       20.7554131097  TIP3      1473            0.0000000000
     23136      1634  TIP3      OH2           -17.4722611731       11.4485680444       32.2675578197  TIP3      1474            0.0000000000
     23137      1634  TIP3      H1            -17.9162248112       12.3022698865       32.4453906492  TIP3      1474            0.0000000000
     23138      1634  TIP3      H2            -16.6431900119       11.7850649909       31.8701180584  TIP3      1474            0.0000000000
     23139      1635  TIP3      OH2           -20.6223079861       12.2022824221       25.3104481159  TIP3      1475            0.0000000000
     23140      1635  TIP3      H1            -21.4577753686       12.4033958940       25.8008202963  TIP3      1475            0.0000000000
     23141      1635  TIP3      H2            -20.1220472148       11.7285960070       26.0114967571  TIP3      1475            0.0000000000
     23142      1636  TIP3      OH2           -20.7362873640       10.3909005852       34.3254634225  TIP3      1476            0.0000000000
     23143      1636  TIP3      H1            -20.7920428696       11.3604546130       34.3266366374  TIP3      1476            0.0000000000
     23144      1636  TIP3      H2            -21.5221791008       10.1588559083       33.7959747218  TIP3      1476            0.0000000000
     23145      1637  TIP3      OH2           -29.6986782373       12.5895655067       27.1395536268  TIP3      1477            0.0000000000
     23146      1637  TIP3      H1            -29.7219377618       12.1777812433       26.2584038098  TIP3      1477            0.0000000000
     23147      1637  TIP3      H2            -29.0540494462       12.0261400933       27.5987698716  TIP3      1477            0.0000000000
     23148      1638  TIP3      OH2           -27.1785621080       15.6652274627       29.4825328607  TIP3      1478            0.0000000000
     23149      1638  TIP3      H1            -27.6277979681       15.8841752101       28.6579509908  TIP3      1478            0.0000000000
     23150      1638  TIP3      H2            -27.8039413679       16.1335101709       30.0724121252  TIP3      1478            0.0000000000
     23151      1639  TIP3      OH2           -28.8376974868       11.0713866148       30.7320775998  TIP3      1479            0.0000000000
     23152      1639  TIP3      H1            -28.5978603664       11.0725160090       29.7806946570  TIP3      1479            0.0000000000
     23153      1639  TIP3      H2            -28.5650378131       11.9632535099       31.0158337480  TIP3      1479            0.0000000000
     23154      1640  TIP3      OH2           -23.7521875393       17.3822329679       31.2115702902  TIP3      1480            0.0000000000
     23155      1640  TIP3      H1            -23.0974890334       17.6349372001       31.8881060988  TIP3      1480            0.0000000000
     23156      1640  TIP3      H2            -23.7848889885       16.4137803830       31.3140407277  TIP3      1480            0.0000000000
     23157      1641  TIP3      OH2           -28.1780034497       15.4438761417       35.3614272681  TIP3      1481            0.0000000000
     23158      1641  TIP3      H1            -28.8508507035       16.0228016842       35.7746329342  TIP3      1481            0.0000000000
     23159      1641  TIP3      H2            -28.5368087754       15.4120811492       34.4395943473  TIP3      1481            0.0000000000
     23160      1642  TIP3      OH2           -31.6194864567       12.3865771028       33.9432091260  TIP3      1482            0.0000000000
     23161      1642  TIP3      H1            -31.2651506259       12.9522041608       34.6517673551  TIP3      1482            0.0000000000
     23162      1642  TIP3      H2            -32.3122278809       11.8993884471       34.4154737826  TIP3      1482            0.0000000000
     23163      1643  TIP3      OH2           -24.5445083311       17.3110912734       26.7029244636  TIP3      1483            0.0000000000
     23164      1643  TIP3      H1            -23.7381300804       17.7643933560       26.3967462990  TIP3      1483            0.0000000000
     23165      1643  TIP3      H2            -25.1957737732       18.0095390773       26.6209105604  TIP3      1483            0.0000000000
     23166      1644  TIP3      OH2           -29.9339224179       17.4056886434       36.4851800519  TIP3      1484            0.0000000000
     23167      1644  TIP3      H1            -29.9421027212       17.8604537129       35.6096684492  TIP3      1484            0.0000000000
     23168      1644  TIP3      H2            -30.8846462943       17.2505471349       36.6147451606  TIP3      1484            0.0000000000
     23169      1645  TIP3      OH2           -18.0535219939        2.9233387989       23.1164712290  TIP3      1485            0.0000000000
     23170      1645  TIP3      H1            -19.0331224161        2.9656466908       23.1844696326  TIP3      1485            0.0000000000
     23171      1645  TIP3      H2            -17.8758700829        3.4732685007       22.3210010600  TIP3      1485            0.0000000000
     23172      1646  TIP3      OH2           -30.3079165040       11.7455651043       24.5584106497  TIP3      1486            0.0000000000
     23173      1646  TIP3      H1            -30.9712202639       12.4437378019       24.7127853991  TIP3      1486            0.0000000000
     23174      1646  TIP3      H2            -30.8297000060       10.9371722085       24.6565030836  TIP3      1486            0.0000000000
     23175      1647  TIP3      OH2           -33.9227557889       14.4089005064       33.6229524949  TIP3      1487            0.0000000000
     23176      1647  TIP3      H1            -34.0517107478       14.8627620950       32.7714364639  TIP3      1487            0.0000000000
     23177      1647  TIP3      H2            -33.7009047228       13.5026036799       33.3497086297  TIP3      1487            0.0000000000
     23178      1648  TIP3      OH2           -34.5340406768       16.7599982698       31.1041932077  TIP3      1488            0.0000000000
     23179      1648  TIP3      H1            -33.8406135012       16.0926254998       31.0175511548  TIP3      1488            0.0000000000
     23180      1648  TIP3      H2            -33.9698534079       17.5190139710       31.3490005667  TIP3      1488            0.0000000000
     23181      1649  TIP3      OH2           -16.5692994999       17.6377596228       36.2721908521  TIP3      1489            0.0000000000
     23182      1649  TIP3      H1            -16.6093853134       16.7068161313       35.9666592346  TIP3      1489            0.0000000000
     23183      1649  TIP3      H2            -17.4904584922       17.7742526584       36.6043698558  TIP3      1489            0.0000000000
     23184      1650  TIP3      OH2           -25.7151947706       17.2162291018       35.0909489219  TIP3      1490            0.0000000000
     23185      1650  TIP3      H1            -25.6334441809       18.1456507216       35.4039946886  TIP3      1490            0.0000000000
     23186      1650  TIP3      H2            -26.6526087861       17.1398572511       34.8528164215  TIP3      1490            0.0000000000
     23187      1651  TIP3      OH2           -24.4929274921       21.1190565183       24.6533926624  TIP3      1491            0.0000000000
     23188      1651  TIP3      H1            -24.8631157273       21.2187021717       23.7712996659  TIP3      1491            0.0000000000
     23189      1651  TIP3      H2            -24.8890963404       21.8547816536       25.1668887796  TIP3      1491            0.0000000000
     23190      1652  TIP3      OH2           -31.3125026719       18.9537902990       26.8078903986  TIP3      1492            0.0000000000
     23191      1652  TIP3      H1            -30.9730311441       19.3873223510       27.6242083423  TIP3      1492            0.0000000000
     23192      1652  TIP3      H2            -32.1620826099       19.4383652357       26.7268319556  TIP3      1492            0.0000000000
     23193      1653  TIP3      OH2           -22.1329475406       19.6401794434       21.7569186782  TIP3      1493            0.0000000000
     23194      1653  TIP3      H1            -21.6856980554       18.7812625629       21.7744612529  TIP3      1493            0.0000000000
     23195      1653  TIP3      H2            -22.2216153116       19.7952901137       22.7275420030  TIP3      1493            0.0000000000
     23196      1654  TIP3      OH2           -22.1052723181       20.0691995675       24.4589863807  TIP3      1494            0.0000000000
     23197      1654  TIP3      H1            -23.0379621416       20.3853781234       24.5488290543  TIP3      1494            0.0000000000
     23198      1654  TIP3      H2            -22.0202671519       19.5829924312       25.3116498498  TIP3      1494            0.0000000000
     23199      1655  TIP3      OH2           -19.1373424585        9.1858012256       36.3618277830  TIP3      1495            0.0000000000
     23200      1655  TIP3      H1            -19.7635892062        9.4645962094       35.6615691495  TIP3      1495            0.0000000000
     23201      1655  TIP3      H2            -19.1534004571        8.2238525247       36.2067927589  TIP3      1495            0.0000000000
     23202      1656  TIP3      OH2           -31.7025876701       15.8719413784       34.9635943863  TIP3      1496            0.0000000000
     23203      1656  TIP3      H1            -30.7759677158       15.9910812150       34.7035609662  TIP3      1496            0.0000000000
     23204      1656  TIP3      H2            -32.0924760072       15.4362234023       34.1880160345  TIP3      1496            0.0000000000
     23205      1657  TIP3      OH2           -29.5566810119        4.3021151992       30.1355006251  TIP3      1497            0.0000000000
     23206      1657  TIP3      H1            -30.5082343431        4.2490347280       30.3679634269  TIP3      1497            0.0000000000
     23207      1657  TIP3      H2            -29.1657153866        4.6362075021       30.9824208094  TIP3      1497            0.0000000000
     23208      1658  TIP3      OH2           -24.8349493023        3.7273413772       33.6633875177  TIP3      1498            0.0000000000
     23209      1658  TIP3      H1            -24.6151795578        3.3835522787       34.5486722022  TIP3      1498            0.0000000000
     23210      1658  TIP3      H2            -25.8063164396        3.8252536717       33.7348102330  TIP3      1498            0.0000000000
     23211      1659  TIP3      OH2           -21.4960962176        7.6063698406       34.9116385976  TIP3      1499            0.0000000000
     23212      1659  TIP3      H1            -22.1801089598        7.2420739041       35.5243139590  TIP3      1499            0.0000000000
     23213      1659  TIP3      H2            -21.9708242590        8.3582818599       34.5337612848  TIP3      1499            0.0000000000
     23214      1660  TIP3      OH2           -29.0468152360        8.7222266391       31.9384645995  TIP3      1500            0.0000000000
     23215      1660  TIP3      H1            -29.9256013750        8.8222656356       32.3414327614  TIP3      1500            0.0000000000
     23216      1660  TIP3      H2            -28.9275072894        9.6117271451       31.5334041368  TIP3      1500            0.0000000000
     23217      1661  TIP3      OH2           -29.3632864944        9.0436592505       26.5409186562  TIP3      1501            0.0000000000
     23218      1661  TIP3      H1            -30.3254847872        8.8192446622       26.4350535803  TIP3      1501            0.0000000000
     23219      1661  TIP3      H2            -28.9762785500        8.4138882007       25.9117317460  TIP3      1501            0.0000000000
     23220      1662  TIP3      OH2           -23.9492460589       10.1053966191       25.8995191773  TIP3      1502            0.0000000000
     23221      1662  TIP3      H1            -24.0572596967       10.6139823335       25.0653639630  TIP3      1502            0.0000000000
     23222      1662  TIP3      H2            -24.0568550847        9.1696584041       25.6163058505  TIP3      1502            0.0000000000
     23223      1663  TIP3      OH2           -24.7052732807        9.2577774187       37.2308885572  TIP3      1503            0.0000000000
     23224      1663  TIP3      H1            -25.4126319481        8.6470566158       37.5507367845  TIP3      1503            0.0000000000
     23225      1663  TIP3      H2            -23.8715023374        8.8471214952       37.5732282622  TIP3      1503            0.0000000000
     23226      1664  TIP3      OH2           -23.5340148704        8.9344619928       28.5060497391  TIP3      1504            0.0000000000
     23227      1664  TIP3      H1            -23.4091121238        9.6548254806       27.8550966698  TIP3      1504            0.0000000000
     23228      1664  TIP3      H2            -23.0517434344        8.2359761416       28.0223640205  TIP3      1504            0.0000000000
     23229      1665  TIP3      OH2           -31.7736496801        9.0004047817       33.1331780522  TIP3      1505            0.0000000000
     23230      1665  TIP3      H1            -31.3972670207        9.1969708234       34.0026402968  TIP3      1505            0.0000000000
     23231      1665  TIP3      H2            -32.3841390896        8.2575310972       33.3481653239  TIP3      1505            0.0000000000
     23232      1666  TIP3      OH2           -34.4563563505        5.0048417022       27.2873588803  TIP3      1506            0.0000000000
     23233      1666  TIP3      H1            -33.6930733343        5.2605822768       27.8621139286  TIP3      1506            0.0000000000
     23234      1666  TIP3      H2            -33.9802556128        4.7137741724       26.4823274097  TIP3      1506            0.0000000000
     23235      1667  TIP3      OH2           -33.2508409146        6.8639697939       22.7981570776  TIP3      1507            0.0000000000
     23236      1667  TIP3      H1            -32.8809828123        7.7265464272       22.5052674951  TIP3      1507            0.0000000000
     23237      1667  TIP3      H2            -33.6906087429        6.6446902449       21.9428282101  TIP3      1507            0.0000000000
     23238      1668  TIP3      OH2           -23.5525889028       11.2457296544       32.8284456854  TIP3      1508            0.0000000000
     23239      1668  TIP3      H1            -22.9538335847       10.6196837777       32.3866921898  TIP3      1508            0.0000000000
     23240      1668  TIP3      H2            -23.9902451185       10.6466551031       33.4741759956  TIP3      1508            0.0000000000
     23241      1669  TIP3      OH2           -27.0837774762        6.2169778969       27.9442949259  TIP3      1509            0.0000000000
     23242      1669  TIP3      H1            -28.0556371461        6.0913258004       28.0017295333  TIP3      1509            0.0000000000
     23243      1669  TIP3      H2            -26.9357022073        6.9120727820       28.6103476707  TIP3      1509            0.0000000000
     23244      1670  TIP3      OH2           -31.8432091126        8.2770080577       26.2620012429  TIP3      1510            0.0000000000
     23245      1670  TIP3      H1            -32.6308647073        8.7863108597       25.9949840474  TIP3      1510            0.0000000000
     23246      1670  TIP3      H2            -31.9227445271        7.4303991851       25.7860854702  TIP3      1510            0.0000000000
     23247      1671  TIP3      OH2           -29.1747631192        8.4630006142       23.9327418190  TIP3      1511            0.0000000000
     23248      1671  TIP3      H1            -28.4154877280        7.9650113171       24.3182096911  TIP3      1511            0.0000000000
     23249      1671  TIP3      H2            -28.9283224326        9.3803213822       24.1427479242  TIP3      1511            0.0000000000
     23250      1672  TIP3      OH2           -22.1972256509        5.7912595197       30.7526082087  TIP3      1512            0.0000000000
     23251      1672  TIP3      H1            -22.7533227807        5.7265746335       31.5589231613  TIP3      1512            0.0000000000
     23252      1672  TIP3      H2            -22.7276202134        5.2480862736       30.1160294728  TIP3      1512            0.0000000000
     23253      1673  TIP3      OH2           -19.2070740442       21.5883088333       37.3816367302  TIP3      1513            0.0000000000
     23254      1673  TIP3      H1            -18.7547312755       21.5816693167       36.5079207110  TIP3      1513            0.0000000000
     23255      1673  TIP3      H2            -19.2505121743       22.5541624965       37.5298059450  TIP3      1513            0.0000000000
     23256      1674  TIP3      OH2           -31.6099090557       13.5727921182       37.0522211853  TIP3      1514            0.0000000000
     23257      1674  TIP3      H1            -30.8578840133       13.8038136022       37.6453957006  TIP3      1514            0.0000000000
     23258      1674  TIP3      H2            -32.1740450743       13.0988094011       37.6762602549  TIP3      1514            0.0000000000
     23259      1675  TIP3      OH2           -26.2106275487        9.1500016516       29.0315548342  TIP3      1515            0.0000000000
     23260      1675  TIP3      H1            -25.2738268551        9.0492027319       28.7520473128  TIP3      1515            0.0000000000
     23261      1675  TIP3      H2            -26.1883576226        8.7301421053       29.9240152940  TIP3      1515            0.0000000000
     23262      1676  TIP3      OH2           -30.8375434416        5.2631632347       25.8951922046  TIP3      1516            0.0000000000
     23263      1676  TIP3      H1            -31.5711240341        4.7134284802       26.2449033818  TIP3      1516            0.0000000000
     23264      1676  TIP3      H2            -30.1299485571        4.5759614332       25.8913506621  TIP3      1516            0.0000000000
     23265      1677  TIP3      OH2           -26.1901576502        8.0729633626       31.5368980320  TIP3      1517            0.0000000000
     23266      1677  TIP3      H1            -27.0858557529        8.3585546210       31.8013129043  TIP3      1517            0.0000000000
     23267      1677  TIP3      H2            -26.0773828448        7.4124953938       32.2417676674  TIP3      1517            0.0000000000
     23268      1678  TIP3      OH2           -26.4185708690       13.8881778790       23.6255802910  TIP3      1518            0.0000000000
     23269      1678  TIP3      H1            -27.1488438367       13.3178571660       23.3120475388  TIP3      1518            0.0000000000
     23270      1678  TIP3      H2            -26.8185483584       14.2827856920       24.4370812782  TIP3      1518            0.0000000000
     23271      1679  TIP3      OH2           -19.3217173689       13.5706135840       32.2824787980  TIP3      1519            0.0000000000
     23272      1679  TIP3      H1            -18.7093605458       14.0864503667       31.7073063484  TIP3      1519            0.0000000000
     23273      1679  TIP3      H2            -20.0717272976       13.3927722920       31.6706871101  TIP3      1519            0.0000000000
     23274      1680  TIP3      OH2           -22.1441718958        7.0956318117       21.7216257153  TIP3      1520            0.0000000000
     23275      1680  TIP3      H1            -23.0752918886        7.1382526171       21.9488993455  TIP3      1520            0.0000000000
     23276      1680  TIP3      H2            -21.8214332687        7.8847485594       22.2010220029  TIP3      1520            0.0000000000
     23277      1681  TIP3      OH2           -24.6108255718       14.7473790737       35.0304788255  TIP3      1521            0.0000000000
     23278      1681  TIP3      H1            -25.2234830128       14.3861764256       35.6846186005  TIP3      1521            0.0000000000
     23279      1681  TIP3      H2            -24.8768397929       15.6947116254       35.0421203824  TIP3      1521            0.0000000000
     23280      1682  TIP3      OH2           -21.4038441662        8.9608365836       23.7171487656  TIP3      1522            0.0000000000
     23281      1682  TIP3      H1            -21.1758378920        8.4087069384       24.4850379369  TIP3      1522            0.0000000000
     23282      1682  TIP3      H2            -21.7316142742        9.7412938541       24.1908991861  TIP3      1522            0.0000000000
     23283      1683  TIP3      OH2           -31.6410127754       13.4768062283       29.3081603635  TIP3      1523            0.0000000000
     23284      1683  TIP3      H1            -31.0103918088       13.5785772803       28.5730239781  TIP3      1523            0.0000000000
     23285      1683  TIP3      H2            -31.3338443969       12.6445454469       29.7080089367  TIP3      1523            0.0000000000
     23286      1684  TIP3      OH2           -34.7745317447       11.8999408722       35.4152245187  TIP3      1524            0.0000000000
     23287      1684  TIP3      H1            -34.3129271237       11.3012528263       36.0309483428  TIP3      1524            0.0000000000
     23288      1684  TIP3      H2            -34.9938778413       11.3217849843       34.6726001964  TIP3      1524            0.0000000000
     23289      1685  TIP3      OH2           -27.7563341317       11.0341823946       36.5602663192  TIP3      1525            0.0000000000
     23290      1685  TIP3      H1            -28.5492515325       11.0735687686       35.9845934859  TIP3      1525            0.0000000000
     23291      1685  TIP3      H2            -27.4277792455       10.1838954757       36.2307985572  TIP3      1525            0.0000000000
     23292      1686  TIP3      OH2           -22.3128047799       16.7424033498       35.0405762464  TIP3      1526            0.0000000000
     23293      1686  TIP3      H1            -23.1042007573       16.8584935737       34.5067683494  TIP3      1526            0.0000000000
     23294      1686  TIP3      H2            -22.5911706695       17.1981491602       35.8641909837  TIP3      1526            0.0000000000
     23295      1687  TIP3      OH2           -16.7332162300       14.9240413126       36.0891033157  TIP3      1527            0.0000000000
     23296      1687  TIP3      H1            -17.2814497268       14.9689768576       35.2790933460  TIP3      1527            0.0000000000
     23297      1687  TIP3      H2            -15.8579444243       14.7774558961       35.6557349770  TIP3      1527            0.0000000000
     23298      1688  TIP3      OH2           -18.6616290870       17.4275385879       23.1069839667  TIP3      1528            0.0000000000
     23299      1688  TIP3      H1            -18.4381494343       17.0973997380       23.9964836237  TIP3      1528            0.0000000000
     23300      1688  TIP3      H2            -19.1425837499       16.6684894250       22.7452037133  TIP3      1528            0.0000000000
     23301      1689  TIP3      OH2           -21.3559926576       12.4064829828       30.5531533696  TIP3      1529            0.0000000000
     23302      1689  TIP3      H1            -22.2852195889       12.1815687608       30.3994322416  TIP3      1529            0.0000000000
     23303      1689  TIP3      H2            -20.9243707411       11.6727708498       30.0661822326  TIP3      1529            0.0000000000
     23304      1690  TIP3      OH2           -28.9125856879       17.1223862791       26.8258108020  TIP3      1530            0.0000000000
     23305      1690  TIP3      H1            -28.6074950366       17.8942133863       26.3138373343  TIP3      1530            0.0000000000
     23306      1690  TIP3      H2            -29.8725600186       17.2815009328       26.8128178464  TIP3      1530            0.0000000000
     23307      1691  TIP3      OH2           -27.3460965136       14.6787149985       26.0032391311  TIP3      1531            0.0000000000
     23308      1691  TIP3      H1            -27.8536681222       15.4759571331       26.2703493056  TIP3      1531            0.0000000000
     23309      1691  TIP3      H2            -27.2128569586       14.1910151955       26.8365967897  TIP3      1531            0.0000000000
     23310      1692  TIP3      OH2           -26.6748072347       18.4615790363       32.9208400650  TIP3      1532            0.0000000000
     23311      1692  TIP3      H1            -26.2393615643       19.2636686163       32.5791630741  TIP3      1532            0.0000000000
     23312      1692  TIP3      H2            -25.9126049803       18.0250241316       33.3361576257  TIP3      1532            0.0000000000
     23313      1693  TIP3      OH2           -28.8870080204       19.4570009428       25.3999453157  TIP3      1533            0.0000000000
     23314      1693  TIP3      H1            -29.7152247854       19.5106226510       25.9183974855  TIP3      1533            0.0000000000
     23315      1693  TIP3      H2            -28.2652434730       20.0014545003       25.9464774130  TIP3      1533            0.0000000000
     23316      1694  TIP3      OH2           -23.7837242090       14.6827509444       32.2682998386  TIP3      1534            0.0000000000
     23317      1694  TIP3      H1            -23.9043235863       14.6341727879       33.2390398662  TIP3      1534            0.0000000000
     23318      1694  TIP3      H2            -23.1707445227       13.9520575607       32.0942265447  TIP3      1534            0.0000000000
     23319      1695  TIP3      OH2           -21.4960563761       15.6665827186       21.3599801056  TIP3      1535            0.0000000000
     23320      1695  TIP3      H1            -21.2269386209       15.4453983137       22.2723109134  TIP3      1535            0.0000000000
     23321      1695  TIP3      H2            -21.6722483488       14.7963283652       20.9914652224  TIP3      1535            0.0000000000
     23322      1696  TIP3      OH2           -20.4244019635       18.8864579336       34.8026200413  TIP3      1536            0.0000000000
     23323      1696  TIP3      H1            -21.3955263348       18.8332100435       34.6939527795  TIP3      1536            0.0000000000
     23324      1696  TIP3      H2            -20.2142596638       19.6351627781       34.2012994208  TIP3      1536            0.0000000000
     23325      1697  TIP3      OH2           -32.9158045762        6.5572292963       34.4347096354  TIP3      1537            0.0000000000
     23326      1697  TIP3      H1            -33.6517535583        6.1164182169       34.8828720044  TIP3      1537            0.0000000000
     23327      1697  TIP3      H2            -32.2199668981        5.8822759431       34.5652213281  TIP3      1537            0.0000000000
     23328      1698  TIP3      OH2           -20.4278008786       14.3254448735       23.5116988901  TIP3      1538            0.0000000000
     23329      1698  TIP3      H1            -20.6083794295       13.5613261638       24.1106070269  TIP3      1538            0.0000000000
     23330      1698  TIP3      H2            -19.4412495833       14.2770461264       23.5294298880  TIP3      1538            0.0000000000
     23331      1699  TIP3      OH2           -32.7578682225       18.2273060061       32.6605795259  TIP3      1539            0.0000000000
     23332      1699  TIP3      H1            -32.4266576812       17.4887539692       33.1917694801  TIP3      1539            0.0000000000
     23333      1699  TIP3      H2            -33.6068306133       18.4795116320       33.0946961356  TIP3      1539            0.0000000000
     23334      1700  TIP3      OH2           -23.1319099729        5.7160038331       33.5459300718  TIP3      1540            0.0000000000
     23335      1700  TIP3      H1            -23.3268579455        6.1933292094       34.3627175621  TIP3      1540            0.0000000000
     23336      1700  TIP3      H2            -23.7400581453        4.9501329674       33.6230958883  TIP3      1540            0.0000000000
     23337      1701  TIP3      OH2           -22.5373274142        4.8741222627       23.6302424584  TIP3      1541            0.0000000000
     23338      1701  TIP3      H1            -22.1824131348        5.4206305176       22.9119097421  TIP3      1541            0.0000000000
     23339      1701  TIP3      H2            -22.9630604771        5.5639591588       24.1989344889  TIP3      1541            0.0000000000
     23340      1702  TIP3      OH2           -27.2152647729        7.2067188877       25.3432975651  TIP3      1542            0.0000000000
     23341      1702  TIP3      H1            -26.2806281851        7.3935041241       25.1285812507  TIP3      1542            0.0000000000
     23342      1702  TIP3      H2            -27.0792754676        6.6998254372       26.1726591517  TIP3      1542            0.0000000000
     23343      1703  TIP3      OH2           -24.5148858454        9.1221038736       34.4081117630  TIP3      1543            0.0000000000
     23344      1703  TIP3      H1            -24.7502593774        9.1298808904       35.3608476945  TIP3      1543            0.0000000000
     23345      1703  TIP3      H2            -25.1066726185        8.4462298372       34.0205868956  TIP3      1543            0.0000000000
     23346      1704  TIP3      OH2           -24.9792929559        4.6144935982       26.3900706767  TIP3      1544            0.0000000000
     23347      1704  TIP3      H1            -25.6400347489        5.0694506849       26.9479086454  TIP3      1544            0.0000000000
     23348      1704  TIP3      H2            -24.5651044405        5.3708280549       25.9300027937  TIP3      1544            0.0000000000
     23349      1705  TIP3      OH2           -27.8738135258       19.2400324877       22.9363851931  TIP3      1545            0.0000000000
     23350      1705  TIP3      H1            -27.4630168175       20.0868219014       23.1188118684  TIP3      1545            0.0000000000
     23351      1705  TIP3      H2            -28.4435207733       19.1411394803       23.7339286700  TIP3      1545            0.0000000000
     23352      1706  TIP3      OH2           -19.0557781420        6.3969099619       35.1922975414  TIP3      1546            0.0000000000
     23353      1706  TIP3      H1            -20.0264321981        6.4784879246       35.0550286155  TIP3      1546            0.0000000000
     23354      1706  TIP3      H2            -18.7140128603        6.3592972704       34.2823234646  TIP3      1546            0.0000000000
     23355      1707  TIP3      OH2           -20.6676517812        9.9366707686       29.3708365964  TIP3      1547            0.0000000000
     23356      1707  TIP3      H1            -21.3948079223        9.3064867628       29.2190714072  TIP3      1547            0.0000000000
     23357      1707  TIP3      H2            -19.9868667929        9.3575689997       29.7795879457  TIP3      1547            0.0000000000
     23358      1708  TIP3      OH2           -30.5448230024       16.7713092485       21.3421576077  TIP3      1548            0.0000000000
     23359      1708  TIP3      H1            -30.0619514961       16.1779122390       21.9289924363  TIP3      1548            0.0000000000
     23360      1708  TIP3      H2            -30.8393348402       16.2260193103       20.5967226084  TIP3      1548            0.0000000000
     23361      1709  TIP3      OH2           -32.7806751239        9.1683011315       21.6525172452  TIP3      1549            0.0000000000
     23362      1709  TIP3      H1            -32.2012814355        9.7995209520       21.1955612383  TIP3      1549            0.0000000000
     23363      1709  TIP3      H2            -32.9135688404        8.5000815612       20.9269106994  TIP3      1549            0.0000000000
     23364      1710  TIP3      OH2           -19.3314307770       19.6978137391       30.7493858236  TIP3      1550            0.0000000000
     23365      1710  TIP3      H1            -19.0967838935       20.4818354449       30.2052985316  TIP3      1550            0.0000000000
     23366      1710  TIP3      H2            -18.4484238167       19.5525396246       31.1467589569  TIP3      1550            0.0000000000
     23367      1711  TIP3      OH2           -32.1951682768        3.7115036629       30.1544854830  TIP3      1551            0.0000000000
     23368      1711  TIP3      H1            -31.9342916002        3.6639722969       29.2171721797  TIP3      1551            0.0000000000
     23369      1711  TIP3      H2            -32.2977161974        2.7622791133       30.3622925137  TIP3      1551            0.0000000000
     23370      1712  TIP3      OH2           -32.8850479007       16.8789720661       25.3305150051  TIP3      1552            0.0000000000
     23371      1712  TIP3      H1            -33.5448634569       17.5813666196       25.5322306909  TIP3      1552            0.0000000000
     23372      1712  TIP3      H2            -32.1114800835       17.1910692603       25.8234976529  TIP3      1552            0.0000000000
     23373      1713  TIP3      OH2           -33.5738843349       20.4436476017       37.3485814022  TIP3      1553            0.0000000000
     23374      1713  TIP3      H1            -32.7786356837       20.0901317867       37.7781577147  TIP3      1553            0.0000000000
     23375      1713  TIP3      H2            -33.9802388540       19.6837289920       36.8858745045  TIP3      1553            0.0000000000
     23376      1714  TIP3      OH2           -28.7642574652       18.8950865855       39.2339753742  TIP3      1554            0.0000000000
     23377      1714  TIP3      H1            -27.9186611264       18.4234314936       39.3038025748  TIP3      1554            0.0000000000
     23378      1714  TIP3      H2            -29.0563610971       18.6073285351       38.3535811828  TIP3      1554            0.0000000000
     23379      1715  TIP3      OH2           -22.9199654203       17.5994110443       37.5187484942  TIP3      1555            0.0000000000
     23380      1715  TIP3      H1            -23.1861627945       16.6861124093       37.7786985623  TIP3      1555            0.0000000000
     23381      1715  TIP3      H2            -22.0385643884       17.7140808918       37.9251089051  TIP3      1555            0.0000000000
     23382      1716  TIP3      OH2           -34.6807085453       14.1626106880       38.8019232582  TIP3      1556            0.0000000000
     23383      1716  TIP3      H1            -34.8064043534       13.2129276317       38.9321017932  TIP3      1556            0.0000000000
     23384      1716  TIP3      H2            -35.6191712290       14.4752762296       38.9042550385  TIP3      1556            0.0000000000
     23385      1717  TIP3      OH2           -26.9846542813       13.7420810160       37.2234082293  TIP3      1557            0.0000000000
     23386      1717  TIP3      H1            -27.1084049938       14.4854843527       36.5923552328  TIP3      1557            0.0000000000
     23387      1717  TIP3      H2            -27.4703385450       13.0399640319       36.7425542389  TIP3      1557            0.0000000000
     23388      1718  TIP3      OH2           -21.5717164947       14.0778846209       35.1487665896  TIP3      1558            0.0000000000
     23389      1718  TIP3      H1            -20.9094719929       14.6456338195       34.7069006134  TIP3      1558            0.0000000000
     23390      1718  TIP3      H2            -22.2680313283       14.7664843180       35.2351217277  TIP3      1558            0.0000000000
     23391      1719  TIP3      OH2           -32.8259616668       10.8277695941       37.2604619128  TIP3      1559            0.0000000000
     23392      1719  TIP3      H1            -32.7269477612        9.9169211603       37.5716735233  TIP3      1559            0.0000000000
     23393      1719  TIP3      H2            -32.6259809615       11.3353209977       38.0715213905  TIP3      1559            0.0000000000
     23394      1720  TIP3      OH2           -28.4821431099       12.1883241779       22.5007587466  TIP3      1560            0.0000000000
     23395      1720  TIP3      H1            -29.1344832515       11.9263886295       23.1859700888  TIP3      1560            0.0000000000
     23396      1720  TIP3      H2            -29.0640198276       12.3372070474       21.7384836994  TIP3      1560            0.0000000000
     23397      1721  TIP3      OH2           -29.3893761467       10.5456273867       34.4666625262  TIP3      1561            0.0000000000
     23398      1721  TIP3      H1            -29.9442427162       11.1389868897       33.9321210055  TIP3      1561            0.0000000000
     23399      1721  TIP3      H2            -28.5158672496       10.5479143347       34.0212703631  TIP3      1561            0.0000000000
     23400      1722  TIP3      OH2           -23.4706916293       12.7784760660       38.4441601615  TIP3      1562            0.0000000000
     23401      1722  TIP3      H1            -22.8560583727       12.7750183874       37.6810599334  TIP3      1562            0.0000000000
     23402      1722  TIP3      H2            -22.8825435069       12.4587571004       39.1475260400  TIP3      1562            0.0000000000
     23403      1723  TIP3      OH2           -29.5610864636        8.1753414984       35.7271894773  TIP3      1563            0.0000000000
     23404      1723  TIP3      H1            -28.9079888942        7.4983525784       35.4467274411  TIP3      1563            0.0000000000
     23405      1723  TIP3      H2            -29.5429090935        8.7436588381       34.9349578668  TIP3      1563            0.0000000000
     23406      1724  TIP3      OH2           -28.6589002028        5.1546074645       32.4943526298  TIP3      1564            0.0000000000
     23407      1724  TIP3      H1            -28.1882417028        5.9533911468       32.8316861629  TIP3      1564            0.0000000000
     23408      1724  TIP3      H2            -29.5945989494        5.2981474004       32.7819618856  TIP3      1564            0.0000000000
     23409      1725  TIP3      OH2           -26.6973557537       11.4257357503       33.7177677060  TIP3      1565            0.0000000000
     23410      1725  TIP3      H1            -26.0113276605       11.3907386170       33.0413778221  TIP3      1565            0.0000000000
     23411      1725  TIP3      H2            -27.3359264206       11.9954152322       33.2619726933  TIP3      1565            0.0000000000
     23412      1726  TIP3      OH2           -22.4298151703        9.1319159893       38.5327420659  TIP3      1566            0.0000000000
     23413      1726  TIP3      H1            -22.3613533976        8.1704751337       38.7333647445  TIP3      1566            0.0000000000
     23414      1726  TIP3      H2            -21.5392143599        9.3942829549       38.7981780406  TIP3      1566            0.0000000000
     23415      1727  TIP3      OH2           -21.1633360169       12.2990698617       37.1360762836  TIP3      1567            0.0000000000
     23416      1727  TIP3      H1            -21.2401460976       12.7532154409       36.2634165705  TIP3      1567            0.0000000000
     23417      1727  TIP3      H2            -20.6860330293       11.4869815518       36.8835958329  TIP3      1567            0.0000000000
     23418      1728  TIP3      OH2           -30.1359308391        9.1415668412       38.0860648519  TIP3      1568            0.0000000000
     23419      1728  TIP3      H1            -30.8893804274        8.5521171646       37.8899118693  TIP3      1568            0.0000000000
     23420      1728  TIP3      H2            -29.6569304463        9.0214797102       37.2348309926  TIP3      1568            0.0000000000
     23421      1729  TIP3      OH2           -27.5129767354        3.2119735138       33.8798330037  TIP3      1569            0.0000000000
     23422      1729  TIP3      H1            -27.9257373791        4.0716741444       33.6313090877  TIP3      1569            0.0000000000
     23423      1729  TIP3      H2            -27.9928354731        2.5612274441       33.3459973438  TIP3      1569            0.0000000000
     23424      1730  TIP3      OH2           -26.9085608308        7.8550497074       37.4902133524  TIP3      1570            0.0000000000
     23425      1730  TIP3      H1            -27.4111025564        7.2934033635       38.1213945381  TIP3      1570            0.0000000000
     23426      1730  TIP3      H2            -26.8908328815        7.3046241002       36.6778248442  TIP3      1570            0.0000000000
     23427      1731  TIP3      OH2           -23.3897405273        6.7525446263       36.5647898461  TIP3      1571            0.0000000000
     23428      1731  TIP3      H1            -24.3380325344        6.7515657726       36.3979526941  TIP3      1571            0.0000000000
     23429      1731  TIP3      H2            -23.3255890641        6.0800710380       37.2860757306  TIP3      1571            0.0000000000
     23430      1732  TIP3      OH2           -22.7408388838        4.8892952312       38.3509767003  TIP3      1572            0.0000000000
     23431      1732  TIP3      H1            -22.4486845049        3.9670632005       38.4944832236  TIP3      1572            0.0000000000
     23432      1732  TIP3      H2            -22.2248050345        5.3956939291       39.0120031786  TIP3      1572            0.0000000000
     23433      1733  TIP3      OH2           -31.9827616965        7.1140301803       37.9591826839  TIP3      1573            0.0000000000
     23434      1733  TIP3      H1            -31.7710219535        6.3978686723       37.3458776264  TIP3      1573            0.0000000000
     23435      1733  TIP3      H2            -32.2323061256        6.5448910699       38.7277471793  TIP3      1573            0.0000000000
     23436      1734  TIP3      OH2           -27.6720141347        2.7467753779       36.4071111976  TIP3      1574            0.0000000000
     23437      1734  TIP3      H1            -26.9013553641        2.1461631763       36.3699375987  TIP3      1574            0.0000000000
     23438      1734  TIP3      H2            -27.5860584118        3.1390777846       35.5061951892  TIP3      1574            0.0000000000
     23439      1735  TIP3      OH2           -27.4402655387        3.9658347856       38.7854233072  TIP3      1575            0.0000000000
     23440      1735  TIP3      H1            -27.5407910529        3.7603639232       37.8235515957  TIP3      1575            0.0000000000
     23441      1735  TIP3      H2            -27.8158391597        4.8683655202       38.8301826473  TIP3      1575            0.0000000000
     23442      1736  TIP3      OH2            34.2947670638       21.6064994027       26.1869018761  TIP3      1576            0.0000000000
     23443      1736  TIP3      H1             34.3895802867       21.3074716573       25.2731178211  TIP3      1576            0.0000000000
     23444      1736  TIP3      H2             35.1752726828       21.3962594261       26.5594930107  TIP3      1576            0.0000000000
     23445      1737  TIP3      OH2           -34.4487547679       18.7873601075       28.9525730533  TIP3      1577            0.0000000000
     23446      1737  TIP3      H1            -34.5804342511       18.2847114248       29.7742995848  TIP3      1577            0.0000000000
     23447      1737  TIP3      H2            -33.9372929961       19.5653489089       29.2665687379  TIP3      1577            0.0000000000
     23448      1738  TIP3      OH2           -16.8759637265       20.4945402650       31.6793113039  TIP3      1578            0.0000000000
     23449      1738  TIP3      H1            -16.6435188944       21.0788310684       32.4366150062  TIP3      1578            0.0000000000
     23450      1738  TIP3      H2            -16.0920688910       20.5838757088       31.1187894445  TIP3      1578            0.0000000000
     23451      1739  TIP3      OH2           -16.3555194643       18.7145906469       33.8109559271  TIP3      1579            0.0000000000
     23452      1739  TIP3      H1            -17.1218870390       18.3095712950       33.3536790373  TIP3      1579            0.0000000000
     23453      1739  TIP3      H2            -16.4462317293       18.4062691725       34.7383901318  TIP3      1579            0.0000000000
     23454      1740  TIP3      OH2           -18.4970912757       15.3372349402       39.4523024034  TIP3      1580            0.0000000000
     23455      1740  TIP3      H1            -19.3898992039       15.4941601967       39.8457693902  TIP3      1580            0.0000000000
     23456      1740  TIP3      H2            -18.0465274826       16.1868179843       39.6839554800  TIP3      1580            0.0000000000
     23457      1741  TIP3      OH2           -17.8464988608       13.9005868225       23.7973157427  TIP3      1581            0.0000000000
     23458      1741  TIP3      H1            -16.9503659922       14.3144929482       23.8045184021  TIP3      1581            0.0000000000
     23459      1741  TIP3      H2            -17.6912939583       13.2097842003       24.4708591358  TIP3      1581            0.0000000000
     23460      1742  TIP3      OH2           -16.9905835781       11.8675149393       25.9280620388  TIP3      1582            0.0000000000
     23461      1742  TIP3      H1            -17.7991877679       11.5714101938       26.4059869985  TIP3      1582            0.0000000000
     23462      1742  TIP3      H2            -16.3875130865       12.1143573766       26.6632710633  TIP3      1582            0.0000000000
     23463      1743  TIP3      OH2           -17.1537533083       14.4980951116       31.0812501911  TIP3      1583            0.0000000000
     23464      1743  TIP3      H1            -16.5552005761       13.9930552365       30.5061724550  TIP3      1583            0.0000000000
     23465      1743  TIP3      H2            -16.9675843683       15.4203111290       30.8107529587  TIP3      1583            0.0000000000
     23466      1744  TIP3      OH2           -18.9051435458       17.4304615588       33.0622102759  TIP3      1584            0.0000000000
     23467      1744  TIP3      H1            -19.2769358013       17.9903292402       33.7705074386  TIP3      1584            0.0000000000
     23468      1744  TIP3      H2            -19.6390320100       17.4214731913       32.4086197373  TIP3      1584            0.0000000000
     23469      1745  TIP3      OH2           -19.1968381403       10.5555234184       26.9233335387  TIP3      1585            0.0000000000
     23470      1745  TIP3      H1            -19.2491540361        9.7274968710       26.3874478393  TIP3      1585            0.0000000000
     23471      1745  TIP3      H2            -19.4443136931       10.2258052230       27.8074701179  TIP3      1585            0.0000000000
     23472      1746  TIP3      OH2           -34.1875649365       12.1233715066       31.3074517612  TIP3      1586            0.0000000000
     23473      1746  TIP3      H1            -34.4422517252       12.3802027832       30.4062441489  TIP3      1586            0.0000000000
     23474      1746  TIP3      H2            -33.2290565558       11.9363966626       31.1686385102  TIP3      1586            0.0000000000
     23475      1747  TIP3      OH2           -18.4334004847       12.2906306094       36.1040817704  TIP3      1587            0.0000000000
     23476      1747  TIP3      H1            -18.4762482551       11.3402850790       36.3118017987  TIP3      1587            0.0000000000
     23477      1747  TIP3      H2            -17.4754222362       12.3516412880       35.8723420527  TIP3      1587            0.0000000000
     23478      1748  TIP3      OH2           -16.8865108352        9.6275160968       38.1837791322  TIP3      1588            0.0000000000
     23479      1748  TIP3      H1            -17.2438879620        9.2164740190       37.3762774250  TIP3      1588            0.0000000000
     23480      1748  TIP3      H2            -16.3171293697       10.3013515115       37.7533452446  TIP3      1588            0.0000000000
     23481      1749  TIP3      OH2           -19.0098526572        8.2429364206       25.3480324084  TIP3      1589            0.0000000000
     23482      1749  TIP3      H1            -19.4587038225        7.5404892880       25.8471848598  TIP3      1589            0.0000000000
     23483      1749  TIP3      H2            -18.7413939937        7.7392305651       24.5657631222  TIP3      1589            0.0000000000
     23484      1750  TIP3      OH2           -18.7423804200        8.2891911161       30.4124245316  TIP3      1590            0.0000000000
     23485      1750  TIP3      H1            -17.7565673122        8.3799994493       30.3934039672  TIP3      1590            0.0000000000
     23486      1750  TIP3      H2            -18.9245728478        8.4980060822       31.3553541703  TIP3      1590            0.0000000000
     23487      1751  TIP3      OH2           -18.6923831164        9.2292842021       32.9606881055  TIP3      1591            0.0000000000
     23488      1751  TIP3      H1            -19.3069089924        9.6986407309       33.5638648682  TIP3      1591            0.0000000000
     23489      1751  TIP3      H2            -18.1678657879        9.9938573783       32.6096336778  TIP3      1591            0.0000000000
     23490      1752  TIP3      OH2           -34.3044629225        7.8560094770       36.8425529958  TIP3      1592            0.0000000000
     23491      1752  TIP3      H1            -33.3839323313        7.5331199630       36.8014801229  TIP3      1592            0.0000000000
     23492      1752  TIP3      H2            -34.7951701667        7.0288464842       37.0110796962  TIP3      1592            0.0000000000
     23493      1753  TIP3      OH2           -16.9334957244        3.2893744489       38.6031342106  TIP3      1593            0.0000000000
     23494      1753  TIP3      H1            -16.6909865232        2.5376387951       38.0340550640  TIP3      1593            0.0000000000
     23495      1753  TIP3      H2            -17.1870773997        3.9449478599       37.9077886420  TIP3      1593            0.0000000000
     23496      1754  TIP3      OH2           -19.0043525609        5.3856884960       24.9885222490  TIP3      1594            0.0000000000
     23497      1754  TIP3      H1            -18.5754668367        5.0869047567       25.8164508670  TIP3      1594            0.0000000000
     23498      1754  TIP3      H2            -19.5332334962        4.6103469034       24.7698339921  TIP3      1594            0.0000000000
     23499      1755  TIP3      OH2           -33.0724147310        6.0714268598       29.2848731606  TIP3      1595            0.0000000000
     23500      1755  TIP3      H1            -32.9012816146        5.3143592412       29.8948382922  TIP3      1595            0.0000000000
     23501      1755  TIP3      H2            -32.9957901865        6.8241066423       29.8888950332  TIP3      1595            0.0000000000
     23502      1756  TIP3      OH2           -34.7112512748        9.4870342276       31.1124613030  TIP3      1596            0.0000000000
     23503      1756  TIP3      H1            -34.3055912243        9.2185461577       30.2797453871  TIP3      1596            0.0000000000
     23504      1756  TIP3      H2            -34.4266713774       10.4194422112       31.1593543575  TIP3      1596            0.0000000000
     23505      1757  TIP3      OH2           -17.1026627305        5.3049370431       37.0164967716  TIP3      1597            0.0000000000
     23506      1757  TIP3      H1            -17.8324018745        5.7235796268       37.5246526873  TIP3      1597            0.0000000000
     23507      1757  TIP3      H2            -17.5471957338        5.1729276174       36.1477082839  TIP3      1597            0.0000000000
     23508      1758  TIP3      OH2           -16.7641605838        4.4633183439       21.3320582308  TIP3      1598            0.0000000000
     23509      1758  TIP3      H1            -15.9245522761        4.2217320227       20.8600489537  TIP3      1598            0.0000000000
     23510      1758  TIP3      H2            -16.4426353625        5.2189711248       21.8430197111  TIP3      1598            0.0000000000
     23511      1759  TIP3      OH2           -34.2213109653        5.1814778555       24.7013442086  TIP3      1599            0.0000000000
     23512      1759  TIP3      H1            -35.1656697566        5.4674403151       24.6502931995  TIP3      1599            0.0000000000
     23513      1759  TIP3      H2            -33.8203595423        5.7726227109       24.0206741675  TIP3      1599            0.0000000000
     23514      1760  TIP3      OH2           -19.8133132161       20.1098361337       26.7775587139  TIP3      1600            0.0000000000
     23515      1760  TIP3      H1            -19.3651464596       19.9131764113       25.9318808195  TIP3      1600            0.0000000000
     23516      1760  TIP3      H2            -19.0769077361       20.5068944551       27.2973420988  TIP3      1600            0.0000000000
     23517      1761  TIP3      OH2            35.2681709851        3.9636741834       33.0415496806  TIP3      1601            0.0000000000
     23518      1761  TIP3      H1             34.7569862352        3.7939538267       33.8486892315  TIP3      1601            0.0000000000
     23519      1761  TIP3      H2             34.8751361433        4.7682930610       32.6955387647  TIP3      1601            0.0000000000
     23520      1762  TIP3      OH2           -32.8888043356       16.9303836951       37.9185444366  TIP3      1602            0.0000000000
     23521      1762  TIP3      H1            -32.9531870485       17.8586036386       37.6649332531  TIP3      1602            0.0000000000
     23522      1762  TIP3      H2            -32.3987782035       16.9631091065       38.7628006369  TIP3      1602            0.0000000000
     23523      1763  TIP3      OH2           -29.5040723075       18.5498523500       33.8800039025  TIP3      1603            0.0000000000
     23524      1763  TIP3      H1            -29.5857758530       19.4263082702       33.4553801566  TIP3      1603            0.0000000000
     23525      1763  TIP3      H2            -28.7329137683       18.2428287063       33.3713373950  TIP3      1603            0.0000000000
     23526      1764  TIP3      OH2           -25.3922003533       19.8246332859       36.3343769886  TIP3      1604            0.0000000000
     23527      1764  TIP3      H1            -25.3118861152       19.5851743116       37.2814212182  TIP3      1604            0.0000000000
     23528      1764  TIP3      H2            -24.4419896255       20.0487459615       36.1872056332  TIP3      1604            0.0000000000
     23529      1765  TIP3      OH2           -22.7335697617       20.4216869728       36.2963728795  TIP3      1605            0.0000000000
     23530      1765  TIP3      H1            -22.4393810320       20.8918025813       35.4873551070  TIP3      1605            0.0000000000
     23531      1765  TIP3      H2            -22.5555054873       21.1002456119       36.9767752662  TIP3      1605            0.0000000000
     23532      1766  TIP3      OH2           -17.8879433221        3.1622052025       35.2838577495  TIP3      1606            0.0000000000
     23533      1766  TIP3      H1            -18.0031099902        3.4788064823       34.3734503439  TIP3      1606            0.0000000000
     23534      1766  TIP3      H2            -17.5271585112        2.2585734717       35.1001230916  TIP3      1606            0.0000000000
     23535      1767  TIP3      OH2           -32.1289099729       20.8965912812       33.4805693876  TIP3      1607            0.0000000000
     23536      1767  TIP3      H1            -31.9928428789       20.3077302805       32.7182958960  TIP3      1607            0.0000000000
     23537      1767  TIP3      H2            -32.8794859880       20.4002244284       33.8945913263  TIP3      1607            0.0000000000
     23538      1768  TIP3      OH2           -29.6409636797       20.8316845391       32.2884041965  TIP3      1608            0.0000000000
     23539      1768  TIP3      H1            -30.4464719495       21.1621623248       32.7344964090  TIP3      1608            0.0000000000
     23540      1768  TIP3      H2            -29.5246887005       21.5450276692       31.6200954127  TIP3      1608            0.0000000000
     23541      1769  TIP3      OH2           -25.1428164480       20.8585477822       31.6726113448  TIP3      1609            0.0000000000
     23542      1769  TIP3      H1            -25.9380697041       21.3946924278       31.5285182882  TIP3      1609            0.0000000000
     23543      1769  TIP3      H2            -24.8004982033       21.3285858168       32.4663902434  TIP3      1609            0.0000000000
     23544      1770  TIP3      OH2           -22.8133440158       19.5072259960       33.0907285775  TIP3      1610            0.0000000000
     23545      1770  TIP3      H1            -23.4078748039       19.8183765897       32.3924140232  TIP3      1610            0.0000000000
     23546      1770  TIP3      H2            -22.5079542055       20.3918693454       33.4078121688  TIP3      1610            0.0000000000
     23547      1771  TIP3      OH2           -19.5630340623       20.8402003187       33.2299419037  TIP3      1611            0.0000000000
     23548      1771  TIP3      H1            -20.2403570399       21.5570256757       33.1722004875  TIP3      1611            0.0000000000
     23549      1771  TIP3      H2            -19.5923252972       20.4509416290       32.3322036427  TIP3      1611            0.0000000000
     23550      1772  TIP3      OH2           -32.5853790173       20.0378095108       30.6958694906  TIP3      1612            0.0000000000
     23551      1772  TIP3      H1            -32.4162560864       19.2737843702       31.2845302953  TIP3      1612            0.0000000000
     23552      1772  TIP3      H2            -31.9436416458       19.9086563641       29.9609021294  TIP3      1612            0.0000000000
     23553      1773  TIP3      OH2           -30.4041335353       19.8980559362       29.1649716175  TIP3      1613            0.0000000000
     23554      1773  TIP3      H1            -30.3497984665       18.9515382675       29.4269039517  TIP3      1613            0.0000000000
     23555      1773  TIP3      H2            -29.5718456028       20.2203462952       29.5663731919  TIP3      1613            0.0000000000
     23556      1774  TIP3      OH2           -27.7331087271       19.4718728842       29.6529255110  TIP3      1614            0.0000000000
     23557      1774  TIP3      H1            -27.9748777258       18.6098537922       29.2792822183  TIP3      1614            0.0000000000
     23558      1774  TIP3      H2            -27.7747985902       19.2333977737       30.5933912429  TIP3      1614            0.0000000000
     23559      1775  TIP3      OH2           -24.3072118155        4.6489572033       29.4128943779  TIP3      1615            0.0000000000
     23560      1775  TIP3      H1            -25.2392676029        4.6096976368       29.6694865398  TIP3      1615            0.0000000000
     23561      1775  TIP3      H2            -24.3790627374        4.2858701558       28.5167767059  TIP3      1615            0.0000000000
     23562      1776  TIP3      OH2           -19.4010205486        2.5788184752       28.9544945642  TIP3      1616            0.0000000000
     23563      1776  TIP3      H1            -18.9010296481        3.2732394695       28.4733182916  TIP3      1616            0.0000000000
     23564      1776  TIP3      H2            -20.3123459849        2.9426379006       28.8607307581  TIP3      1616            0.0000000000
     23565      1777  TIP3      OH2           -17.8210366885        4.0315849620       27.2213907868  TIP3      1617            0.0000000000
     23566      1777  TIP3      H1            -17.0960607344        3.5508740615       26.7653436292  TIP3      1617            0.0000000000
     23567      1777  TIP3      H2            -17.2697659012        4.6347065062       27.7630669372  TIP3      1617            0.0000000000
     23568      1778  TIP3      OH2           -32.1969793881        3.2494930279       26.9900326683  TIP3      1618            0.0000000000
     23569      1778  TIP3      H1            -32.9433427303        2.8700591596       26.4764171304  TIP3      1618            0.0000000000
     23570      1778  TIP3      H2            -31.5312754755        2.5521720432       26.7847271253  TIP3      1618            0.0000000000
     23571      1779  TIP3      OH2           -33.2749229878        3.3372771098       23.0084378959  TIP3      1619            0.0000000000
     23572      1779  TIP3      H1            -32.7424096163        4.0062088990       22.5294861162  TIP3      1619            0.0000000000
     23573      1779  TIP3      H2            -33.8701455005        3.9038998311       23.5379348475  TIP3      1619            0.0000000000
     23574      1780  TIP3      OH2           -28.4317026028        3.4390702434       26.7190733070  TIP3      1620            0.0000000000
     23575      1780  TIP3      H1            -27.7184370209        3.3690542033       26.0525754639  TIP3      1620            0.0000000000
     23576      1780  TIP3      H2            -27.9604315303        3.0419377764       27.4619002228  TIP3      1620            0.0000000000
     23577      1781  TIP3      OH2           -21.6969602019        3.5936113048       28.1234921986  TIP3      1621            0.0000000000
     23578      1781  TIP3      H1            -21.9551622849        3.7714805817       27.2177544250  TIP3      1621            0.0000000000
     23579      1781  TIP3      H2            -22.3321453900        2.8636058593       28.2809316587  TIP3      1621            0.0000000000
     23580      1782  TIP3      OH2           -20.5861566397        3.0560545607       23.7009415829  TIP3      1622            0.0000000000
     23581      1782  TIP3      H1            -21.2952745198        3.7238234004       23.8094832407  TIP3      1622            0.0000000000
     23582      1782  TIP3      H2            -21.1002062002        2.2194648048       23.8108394243  TIP3      1622            0.0000000000
     23583      1783  TIP3      OH2           -31.5601792480        4.7295393053       21.3462511743  TIP3      1623            0.0000000000
     23584      1783  TIP3      H1            -31.7350187102        4.9864623627       20.4210109428  TIP3      1623            0.0000000000
     23585      1783  TIP3      H2            -31.6228409837        5.6134257665       21.7303772497  TIP3      1623            0.0000000000
     23586      1784  TIP3      OH2           -24.7867560100       20.6176020207       21.6557982999  TIP3      1624            0.0000000000
     23587      1784  TIP3      H1            -23.8174574669       20.4914698746       21.5854897759  TIP3      1624            0.0000000000
     23588      1784  TIP3      H2            -25.1046267677       20.0856686863       20.9172975894  TIP3      1624            0.0000000000
     23589      1785  TIP3      OH2           -18.3172015104       19.8673632338       24.2347620087  TIP3      1625            0.0000000000
     23590      1785  TIP3      H1            -18.5240733595       19.0577301693       23.7118527583  TIP3      1625            0.0000000000
     23591      1785  TIP3      H2            -18.9679086846       20.5425063157       23.9437703060  TIP3      1625            0.0000000000
     23592      1786  TIP3      OH2           -32.9158691368        4.2977988305       36.5999475784  TIP3      1626            0.0000000000
     23593      1786  TIP3      H1            -33.4781384822        3.4986134973       36.6175380535  TIP3      1626            0.0000000000
     23594      1786  TIP3      H2            -32.0399985244        3.8726800040       36.6437672532  TIP3      1626            0.0000000000
     23595      1787  TIP3      OH2           -30.5497446518        3.4255916539       38.2458575413  TIP3      1627            0.0000000000
     23596      1787  TIP3      H1            -29.6037559907        3.3429114670       38.0410536105  TIP3      1627            0.0000000000
     23597      1787  TIP3      H2            -30.7550666377        2.5741703346       38.6854412389  TIP3      1627            0.0000000000
     23598      1788  TIP3      OH2           -21.8450239501        2.3923946672       38.3701068376  TIP3      1628            0.0000000000
     23599      1788  TIP3      H1            -21.7753814860        2.0629370053       39.2933679626  TIP3      1628            0.0000000000
     23600      1788  TIP3      H2            -20.9472123927        2.1447210362       38.0286892777  TIP3      1628            0.0000000000
     23601      1789  TIP3      OH2           -18.8911024255       18.8230473185       36.9458988977  TIP3      1629            0.0000000000
     23602      1789  TIP3      H1            -19.4323137988       18.9090818879       36.1177235509  TIP3      1629            0.0000000000
     23603      1789  TIP3      H2            -18.9619676712       19.7343658818       37.3038587415  TIP3      1629            0.0000000000
     23604      1790  TIP3      OH2            -4.1779515416       12.6582368772       26.8435431718  TIP3      1630            0.0000000000
     23605      1790  TIP3      H1             -4.4245958169       13.5626915038       26.5791810468  TIP3      1630            0.0000000000
     23606      1790  TIP3      H2             -4.6638804108       12.1649430105       26.1459698470  TIP3      1630            0.0000000000
     23607      1791  TIP3      OH2            -5.3378437262       11.7089348537       30.4625973721  TIP3      1631            0.0000000000
     23608      1791  TIP3      H1             -5.5020928760       10.9991309237       31.1029276811  TIP3      1631            0.0000000000
     23609      1791  TIP3      H2             -5.8708224321       11.3702973698       29.7221776460  TIP3      1631            0.0000000000
     23610      1792  TIP3      OH2           -12.8879025342       11.4019227408       31.4028846582  TIP3      1632            0.0000000000
     23611      1792  TIP3      H1            -13.3443001295       10.9587058101       32.1340125115  TIP3      1632            0.0000000000
     23612      1792  TIP3      H2            -12.8172218330       12.3208175626       31.7524640378  TIP3      1632            0.0000000000
     23613      1793  TIP3      OH2            -1.9507298863       15.0504356752       28.2925483574  TIP3      1633            0.0000000000
     23614      1793  TIP3      H1             -2.5695480119       14.2964370195       28.2661677512  TIP3      1633            0.0000000000
     23615      1793  TIP3      H2             -2.1379923651       15.4603518009       29.1625630953  TIP3      1633            0.0000000000
     23616      1794  TIP3      OH2           -11.8793129424       16.1882431139       30.3143266342  TIP3      1634            0.0000000000
     23617      1794  TIP3      H1            -12.3854801449       15.3599037481       30.1960674439  TIP3      1634            0.0000000000
     23618      1794  TIP3      H2            -10.9908156354       15.9323362891       29.9708244086  TIP3      1634            0.0000000000
     23619      1795  TIP3      OH2           -15.6354545693        8.8749308517       25.4384986931  TIP3      1635            0.0000000000
     23620      1795  TIP3      H1            -15.6393707003        9.8420796582       25.3559486787  TIP3      1635            0.0000000000
     23621      1795  TIP3      H2            -16.4414291395        8.7487469723       25.9629745670  TIP3      1635            0.0000000000
     23622      1796  TIP3      OH2           -15.1298058916       11.7893217441       28.0020107833  TIP3      1636            0.0000000000
     23623      1796  TIP3      H1            -14.7361537201       10.9251489496       28.2755650409  TIP3      1636            0.0000000000
     23624      1796  TIP3      H2            -14.3492775825       12.3733678645       27.9486338139  TIP3      1636            0.0000000000
     23625      1797  TIP3      OH2            -4.6117875077       20.4188119754       28.9729646827  TIP3      1637            0.0000000000
     23626      1797  TIP3      H1             -4.0702208705       19.7491502262       28.5018793525  TIP3      1637            0.0000000000
     23627      1797  TIP3      H2             -5.3886853325       19.8251410464       29.0873168379  TIP3      1637            0.0000000000
     23628      1798  TIP3      OH2            -7.1101714793       13.9220313971       31.1576057780  TIP3      1638            0.0000000000
     23629      1798  TIP3      H1             -6.9269283527       14.1621588067       30.2416609465  TIP3      1638            0.0000000000
     23630      1798  TIP3      H2             -6.3190232874       14.3114882902       31.5877109296  TIP3      1638            0.0000000000
     23631      1799  TIP3      OH2             1.7443418895        5.9419789665       31.6208732889  TIP3      1639            0.0000000000
     23632      1799  TIP3      H1              1.8682356264        6.3959461326       32.4818821846  TIP3      1639            0.0000000000
     23633      1799  TIP3      H2              2.3068827795        6.5018863454       31.0699985953  TIP3      1639            0.0000000000
     23634      1800  TIP3      OH2            -3.8247267345        8.7931025361       31.4194824099  TIP3      1640            0.0000000000
     23635      1800  TIP3      H1             -4.0331080839        7.8326517450       31.3957311033  TIP3      1640            0.0000000000
     23636      1800  TIP3      H2             -3.8179265519        8.9624137231       30.4550589004  TIP3      1640            0.0000000000
     23637      1801  TIP3      OH2           -10.6863870481        6.3754313219       27.8794790207  TIP3      1641            0.0000000000
     23638      1801  TIP3      H1            -10.6620982681        7.1877154219       27.3127154300  TIP3      1641            0.0000000000
     23639      1801  TIP3      H2            -11.2968977070        5.8290281452       27.3369667308  TIP3      1641            0.0000000000
     23640      1802  TIP3      OH2            -3.2172925744        6.6416363769       26.5727508857  TIP3      1642            0.0000000000
     23641      1802  TIP3      H1             -2.7668289613        6.4394896556       27.4152804002  TIP3      1642            0.0000000000
     23642      1802  TIP3      H2             -2.7593886301        7.4614734551       26.3522897662  TIP3      1642            0.0000000000
     23643      1803  TIP3      OH2           -14.1731071104        9.3729128509       28.7490832849  TIP3      1643            0.0000000000
     23644      1803  TIP3      H1            -13.5716794886        8.9171778086       29.3557876209  TIP3      1643            0.0000000000
     23645      1803  TIP3      H2            -14.0388118860        8.7979964742       27.9604612516  TIP3      1643            0.0000000000
     23646      1804  TIP3      OH2            -8.7512602877       11.3730324537       28.3980820391  TIP3      1644            0.0000000000
     23647      1804  TIP3      H1             -7.9854043455       10.9706148123       28.8335261627  TIP3      1644            0.0000000000
     23648      1804  TIP3      H2             -8.7093558192       10.8779468900       27.5419413624  TIP3      1644            0.0000000000
     23649      1805  TIP3      OH2             1.8469201231        7.2805388757       33.9337267856  TIP3      1645            0.0000000000
     23650      1805  TIP3      H1              1.1581896669        7.8838440445       33.5536830029  TIP3      1645            0.0000000000
     23651      1805  TIP3      H2              1.4522213603        7.1143350190       34.7997364765  TIP3      1645            0.0000000000
     23652      1806  TIP3      OH2           -11.6112642567        5.7873885036       32.1850265393  TIP3      1646            0.0000000000
     23653      1806  TIP3      H1            -11.9744682564        6.2736570850       31.4110551496  TIP3      1646            0.0000000000
     23654      1806  TIP3      H2            -12.4039811398        5.8010970441       32.7613853835  TIP3      1646            0.0000000000
     23655      1807  TIP3      OH2            -4.8953491141       15.5290515985       25.7681137081  TIP3      1647            0.0000000000
     23656      1807  TIP3      H1             -4.9970672546       15.5218660762       24.7997753615  TIP3      1647            0.0000000000
     23657      1807  TIP3      H2             -5.1615472101       16.4652210594       25.9632227575  TIP3      1647            0.0000000000
     23658      1808  TIP3      OH2            -9.5933613591       13.1547988837       32.5958512694  TIP3      1648            0.0000000000
     23659      1808  TIP3      H1            -10.2150371469       13.8553021808       32.8656692084  TIP3      1648            0.0000000000
     23660      1808  TIP3      H2             -8.9818668055       13.6772249693       32.0407707948  TIP3      1648            0.0000000000
     23661      1809  TIP3      OH2            -1.3901119713        6.6030358923       28.9865140045  TIP3      1649            0.0000000000
     23662      1809  TIP3      H1             -1.4292497741        5.9873610056       29.7502938692  TIP3      1649            0.0000000000
     23663      1809  TIP3      H2             -0.6018985387        7.1290647382       29.2462104727  TIP3      1649            0.0000000000
     23664      1810  TIP3      OH2           -12.1133839397        7.4304458627       30.0738653045  TIP3      1650            0.0000000000
     23665      1810  TIP3      H1            -11.5995016709        8.2093558692       30.3601473145  TIP3      1650            0.0000000000
     23666      1810  TIP3      H2            -11.6685050494        7.1630832461       29.2356029815  TIP3      1650            0.0000000000
     23667      1811  TIP3      OH2           -10.7493669086       15.7016464175       33.3786279580  TIP3      1651            0.0000000000
     23668      1811  TIP3      H1            -10.8757568056       16.4406767537       32.7620415465  TIP3      1651            0.0000000000
     23669      1811  TIP3      H2            -11.5869329196       15.2191602146       33.1628959861  TIP3      1651            0.0000000000
     23670      1812  TIP3      OH2           -15.2901270811       14.6647680406       23.8948418494  TIP3      1652            0.0000000000
     23671      1812  TIP3      H1            -15.0841228826       14.8720019397       22.9550532982  TIP3      1652            0.0000000000
     23672      1812  TIP3      H2            -14.8235519980       15.4117182374       24.3375626737  TIP3      1652            0.0000000000
     23673      1813  TIP3      OH2            -1.9900552558       16.6909880729       30.4719665369  TIP3      1653            0.0000000000
     23674      1813  TIP3      H1             -2.9633290485       16.7813686417       30.6425008830  TIP3      1653            0.0000000000
     23675      1813  TIP3      H2             -1.7113397986       17.6258833396       30.5549152925  TIP3      1653            0.0000000000
     23676      1814  TIP3      OH2            -0.9789105167        5.2037983383       31.4703886012  TIP3      1654            0.0000000000
     23677      1814  TIP3      H1             -1.0803125849        4.9004033340       32.3971329278  TIP3      1654            0.0000000000
     23678      1814  TIP3      H2             -0.0776693797        5.5882687459       31.5029478992  TIP3      1654            0.0000000000
     23679      1815  TIP3      OH2            -8.1415241356        2.9457155971       29.5733666752  TIP3      1655            0.0000000000
     23680      1815  TIP3      H1             -8.6500081676        2.1306923597       29.6716974179  TIP3      1655            0.0000000000
     23681      1815  TIP3      H2             -8.8143869678        3.6031488900       29.8980348899  TIP3      1655            0.0000000000
     23682      1816  TIP3      OH2            -3.1365950514       18.5410702633       27.4934033248  TIP3      1656            0.0000000000
     23683      1816  TIP3      H1             -3.1866579069       17.7162267077       26.9904264217  TIP3      1656            0.0000000000
     23684      1816  TIP3      H2             -2.2019119799       18.7948940385       27.4187988869  TIP3      1656            0.0000000000
     23685      1817  TIP3      OH2            -1.4513874769       16.5475167666       26.0206866983  TIP3      1657            0.0000000000
     23686      1817  TIP3      H1             -1.7749865478       15.9613328240       25.3108863745  TIP3      1657            0.0000000000
     23687      1817  TIP3      H2             -1.6946007330       15.9925883413       26.7955988166  TIP3      1657            0.0000000000
     23688      1818  TIP3      OH2            -0.4207869123       14.6405822405       34.7374017578  TIP3      1658            0.0000000000
     23689      1818  TIP3      H1             -0.0679074468       13.7445010299       34.5242032577  TIP3      1658            0.0000000000
     23690      1818  TIP3      H2             -0.3565247071       15.0955026992       33.8734796099  TIP3      1658            0.0000000000
     23691      1819  TIP3      OH2            -5.4103397398       12.0693527082       24.4688074350  TIP3      1659            0.0000000000
     23692      1819  TIP3      H1             -6.1614503620       12.7004092908       24.3942628397  TIP3      1659            0.0000000000
     23693      1819  TIP3      H2             -5.5133732807       11.5940284641       23.6152133814  TIP3      1659            0.0000000000
     23694      1820  TIP3      OH2            -5.3024083952       10.8092789317       21.8828408361  TIP3      1660            0.0000000000
     23695      1820  TIP3      H1             -4.6437490998       11.0392343310       21.2090644104  TIP3      1660            0.0000000000
     23696      1820  TIP3      H2             -5.8976316697       10.2272445706       21.3753528663  TIP3      1660            0.0000000000
     23697      1821  TIP3      OH2             1.2103020774       10.9936682854       31.8457713184  TIP3      1661            0.0000000000
     23698      1821  TIP3      H1              1.3713379617       11.3365250122       32.7561716500  TIP3      1661            0.0000000000
     23699      1821  TIP3      H2              1.8563902040       11.5419639332       31.3529441652  TIP3      1661            0.0000000000
     23700      1822  TIP3      OH2            -1.7691524246       12.3940427201       25.6230541288  TIP3      1662            0.0000000000
     23701      1822  TIP3      H1             -2.6672509582       12.4054924384       26.0043754882  TIP3      1662            0.0000000000
     23702      1822  TIP3      H2             -1.3420305234       11.6677826562       26.1048620307  TIP3      1662            0.0000000000
     23703      1823  TIP3      OH2            -1.8661644156       10.3401852076       34.4528043307  TIP3      1663            0.0000000000
     23704      1823  TIP3      H1             -1.4940116386       11.2183972765       34.6397063046  TIP3      1663            0.0000000000
     23705      1823  TIP3      H2             -2.5021688302       10.5649454608       33.7495125385  TIP3      1663            0.0000000000
     23706      1824  TIP3      OH2           -11.0181012227       12.3622802333       27.0193508373  TIP3      1664            0.0000000000
     23707      1824  TIP3      H1            -10.7431674614       12.2190139781       26.1015246651  TIP3      1664            0.0000000000
     23708      1824  TIP3      H2            -10.1920481396       12.1134708552       27.4802024325  TIP3      1664            0.0000000000
     23709      1825  TIP3      OH2            -9.2942807165       15.7343570355       29.5088583453  TIP3      1665            0.0000000000
     23710      1825  TIP3      H1             -8.8864227735       16.1175380896       28.7214696903  TIP3      1665            0.0000000000
     23711      1825  TIP3      H2             -8.6615732337       16.0171327592       30.1802152026  TIP3      1665            0.0000000000
     23712      1826  TIP3      OH2            -9.8915044852       11.1487703008       30.7733730304  TIP3      1666            0.0000000000
     23713      1826  TIP3      H1             -9.6631643373       11.4844484846       29.8788052159  TIP3      1666            0.0000000000
     23714      1826  TIP3      H2             -9.8419011929       11.9257147978       31.3720504344  TIP3      1666            0.0000000000
     23715      1827  TIP3      OH2            -4.2592774623       17.2073133051       31.6846476912  TIP3      1667            0.0000000000
     23716      1827  TIP3      H1             -3.9778364216       17.6380824572       32.5049727764  TIP3      1667            0.0000000000
     23717      1827  TIP3      H2             -4.7964569506       16.4713676691       32.0279677884  TIP3      1667            0.0000000000
     23718      1828  TIP3      OH2            -8.8968368018       15.5597647303       35.4854017768  TIP3      1668            0.0000000000
     23719      1828  TIP3      H1             -9.5918286746       16.2178579445       35.7084604963  TIP3      1668            0.0000000000
     23720      1828  TIP3      H2             -9.2512289831       15.3758566922       34.5934634452  TIP3      1668            0.0000000000
     23721      1829  TIP3      OH2           -12.0590611296       11.6500102553       34.8484634485  TIP3      1669            0.0000000000
     23722      1829  TIP3      H1            -12.1425967336       12.5784606671       35.1194237137  TIP3      1669            0.0000000000
     23723      1829  TIP3      H2            -12.9849193501       11.4252649426       34.6421634223  TIP3      1669            0.0000000000
     23724      1830  TIP3      OH2            -5.6107473753       18.1518824124       25.9629180745  TIP3      1670            0.0000000000
     23725      1830  TIP3      H1             -6.1056098531       18.4020222148       26.7612181152  TIP3      1670            0.0000000000
     23726      1830  TIP3      H2             -5.8052422462       18.9112551050       25.3848947631  TIP3      1670            0.0000000000
     23727      1831  TIP3      OH2           -10.8434666784       17.3652710223       36.2074536917  TIP3      1671            0.0000000000
     23728      1831  TIP3      H1            -11.0357079581       17.8923645646       35.3977094492  TIP3      1671            0.0000000000
     23729      1831  TIP3      H2            -11.7429567202       17.1724919314       36.5471821330  TIP3      1671            0.0000000000
     23730      1832  TIP3      OH2             0.5354750032        2.8538784019       22.9392366692  TIP3      1672            0.0000000000
     23731      1832  TIP3      H1             -0.4207848859        2.9090740588       23.1713414742  TIP3      1672            0.0000000000
     23732      1832  TIP3      H2              0.7167143481        3.7306798758       22.5761887681  TIP3      1672            0.0000000000
     23733      1833  TIP3      OH2           -11.3282494401       11.3080822280       24.2467286604  TIP3      1673            0.0000000000
     23734      1833  TIP3      H1            -11.6919756765       12.1453803909       23.8788210365  TIP3      1673            0.0000000000
     23735      1833  TIP3      H2            -12.0573276930       10.9814964146       24.7776339494  TIP3      1673            0.0000000000
     23736      1834  TIP3      OH2           -16.3210587050       13.6621483773       33.5655392886  TIP3      1674            0.0000000000
     23737      1834  TIP3      H1            -16.6486257131       13.8921263402       32.6677283977  TIP3      1674            0.0000000000
     23738      1834  TIP3      H2            -15.3520891105       13.5895139811       33.3681964762  TIP3      1674            0.0000000000
     23739      1835  TIP3      OH2           -15.0974126426       16.9563290630       30.5786763251  TIP3      1675            0.0000000000
     23740      1835  TIP3      H1            -14.7409394049       16.9057495465       29.6618497169  TIP3      1675            0.0000000000
     23741      1835  TIP3      H2            -15.8297990930       17.5699578284       30.4510389453  TIP3      1675            0.0000000000
     23742      1836  TIP3      OH2             2.3030195397       17.5866823839       35.8389711767  TIP3      1676            0.0000000000
     23743      1836  TIP3      H1              2.4499589462       16.6320868863       35.6906287116  TIP3      1676            0.0000000000
     23744      1836  TIP3      H2              1.7133529480       17.5014170917       36.6080374028  TIP3      1676            0.0000000000
     23745      1837  TIP3      OH2            -6.2531365638       16.6678418153       35.0194229661  TIP3      1677            0.0000000000
     23746      1837  TIP3      H1             -6.2696032543       17.5559881060       35.4398421703  TIP3      1677            0.0000000000
     23747      1837  TIP3      H2             -7.2001243388       16.5213871368       34.8439682811  TIP3      1677            0.0000000000
     23748      1838  TIP3      OH2            -6.0500092825       20.4883757912       24.6526920147  TIP3      1678            0.0000000000
     23749      1838  TIP3      H1             -6.1036905346       20.5295591871       23.6695923434  TIP3      1678            0.0000000000
     23750      1838  TIP3      H2             -6.2177200327       21.4132742820       24.9001139315  TIP3      1678            0.0000000000
     23751      1839  TIP3      OH2           -12.5691285269       19.3565623218       26.5151079694  TIP3      1679            0.0000000000
     23752      1839  TIP3      H1            -12.3618768326       19.0871048141       27.4437991969  TIP3      1679            0.0000000000
     23753      1839  TIP3      H2            -13.4199182546       18.8880727660       26.3908846686  TIP3      1679            0.0000000000
     23754      1840  TIP3      OH2            -3.2580238304       20.1586191930       21.8106885361  TIP3      1680            0.0000000000
     23755      1840  TIP3      H1             -2.7649257111       19.5709539425       21.2136483326  TIP3      1680            0.0000000000
     23756      1840  TIP3      H2             -3.7066617080       19.5236886133       22.3947106492  TIP3      1680            0.0000000000
     23757      1841  TIP3      OH2            -3.3739900225       20.0122121396       24.8223613719  TIP3      1681            0.0000000000
     23758      1841  TIP3      H1             -4.3557243122       20.0317402875       24.7162879280  TIP3      1681            0.0000000000
     23759      1841  TIP3      H2             -3.3066707908       19.5223325917       25.6712081627  TIP3      1681            0.0000000000
     23760      1842  TIP3      OH2            -0.5496802291        8.9620209326       36.4721659836  TIP3      1682            0.0000000000
     23761      1842  TIP3      H1             -1.1396187297        9.4829086942       35.8951399739  TIP3      1682            0.0000000000
     23762      1842  TIP3      H2             -0.5837380667        8.0943484440       35.9891393436  TIP3      1682            0.0000000000
     23763      1843  TIP3      OH2           -14.4034023336       15.6603708460       35.0604264608  TIP3      1683            0.0000000000
     23764      1843  TIP3      H1            -13.4843622125       15.3845898851       35.1440507941  TIP3      1683            0.0000000000
     23765      1843  TIP3      H2            -14.4886985576       15.4312780703       34.1096998133  TIP3      1683            0.0000000000
     23766      1844  TIP3      OH2            -9.9600557641        4.5474527974       30.4342477285  TIP3      1684            0.0000000000
     23767      1844  TIP3      H1            -10.8648110435        4.3977356128       30.0658831155  TIP3      1684            0.0000000000
     23768      1844  TIP3      H2            -10.1187095666        5.4003086509       30.8629031335  TIP3      1684            0.0000000000
     23769      1845  TIP3      OH2            -5.7412931746        3.6863426804       33.8718238704  TIP3      1685            0.0000000000
     23770      1845  TIP3      H1             -5.1419424073        3.3008797432       34.5588986240  TIP3      1685            0.0000000000
     23771      1845  TIP3      H2             -6.6206343985        3.5472632077       34.2591365741  TIP3      1685            0.0000000000
     23772      1846  TIP3      OH2            -3.1004880023        7.6122781195       34.9475275862  TIP3      1686            0.0000000000
     23773      1846  TIP3      H1             -3.8714447012        7.4390003606       35.5402766842  TIP3      1686            0.0000000000
     23774      1846  TIP3      H2             -3.2064454031        8.5085880062       34.6072296212  TIP3      1686            0.0000000000
     23775      1847  TIP3      OH2            -6.2569486125        6.4542090513       21.4006244820  TIP3      1687            0.0000000000
     23776      1847  TIP3      H1             -6.6219220748        5.8933505273       22.1165477778  TIP3      1687            0.0000000000
     23777      1847  TIP3      H2             -6.4139803324        5.8972938662       20.6356495983  TIP3      1687            0.0000000000
     23778      1848  TIP3      OH2           -10.3397505789        8.9307491054       32.0412206017  TIP3      1688            0.0000000000
     23779      1848  TIP3      H1            -11.2468771674        9.0210186677       32.4179659835  TIP3      1688            0.0000000000
     23780      1848  TIP3      H2            -10.2267699897        9.7770069584       31.5445349780  TIP3      1688            0.0000000000
     23781      1849  TIP3      OH2           -10.9618226430        8.7122425111       26.5729180102  TIP3      1689            0.0000000000
     23782      1849  TIP3      H1            -11.8963052659        8.9658088542       26.4921504835  TIP3      1689            0.0000000000
     23783      1849  TIP3      H2            -10.4707088798        9.4472762690       26.1496021739  TIP3      1689            0.0000000000
     23784      1850  TIP3      OH2            -4.6260211459        9.8118747019       25.6128852695  TIP3      1690            0.0000000000
     23785      1850  TIP3      H1             -5.0251738988       10.5701531049       25.1293254176  TIP3      1690            0.0000000000
     23786      1850  TIP3      H2             -4.0667165933        9.4183135873       24.9053002516  TIP3      1690            0.0000000000
     23787      1851  TIP3      OH2            -5.8923275848        9.7001664918       37.0381962330  TIP3      1691            0.0000000000
     23788      1851  TIP3      H1             -6.3965909429        8.8889488918       37.3100270742  TIP3      1691            0.0000000000
     23789      1851  TIP3      H2             -5.0321852218        9.4562018963       37.4535527395  TIP3      1691            0.0000000000
     23790      1852  TIP3      OH2            -3.7989033706        9.5044686554       28.4149237124  TIP3      1692            0.0000000000
     23791      1852  TIP3      H1             -4.1112300330       10.1814146442       27.7851789019  TIP3      1692            0.0000000000
     23792      1852  TIP3      H2             -4.2230378779        8.6976382010       28.0858981625  TIP3      1692            0.0000000000
     23793      1853  TIP3      OH2           -12.7193034639        8.8705156839       33.2228159179  TIP3      1693            0.0000000000
     23794      1853  TIP3      H1            -13.3211837887        9.4121043963       33.7784631218  TIP3      1693            0.0000000000
     23795      1853  TIP3      H2            -13.1583243032        8.0020152441       33.2271942787  TIP3      1693            0.0000000000
     23796      1854  TIP3      OH2            -9.6223267174        6.8364723819       20.6265841330  TIP3      1694            0.0000000000
     23797      1854  TIP3      H1            -10.3456245614        6.2354394553       20.8551747040  TIP3      1694            0.0000000000
     23798      1854  TIP3      H2             -9.5249610637        6.7551568304       19.6717881191  TIP3      1694            0.0000000000
     23799      1855  TIP3      OH2           -16.1718642205        6.3383377982       27.6801631728  TIP3      1695            0.0000000000
     23800      1855  TIP3      H1            -15.6140332919        5.5930886263       27.9852809604  TIP3      1695            0.0000000000
     23801      1855  TIP3      H2            -15.9857722205        6.3660853161       26.7194670442  TIP3      1695            0.0000000000
     23802      1856  TIP3      OH2           -15.2464864219        6.9955013976       22.7979864806  TIP3      1696            0.0000000000
     23803      1856  TIP3      H1            -14.4732084469        6.4725442550       22.5474000638  TIP3      1696            0.0000000000
     23804      1856  TIP3      H2            -15.2108529226        6.9811283089       23.7780665800  TIP3      1696            0.0000000000
     23805      1857  TIP3      OH2            -4.5538726093       10.5723293378       33.2384896022  TIP3      1697            0.0000000000
     23806      1857  TIP3      H1             -4.1537602282        9.9735575123       32.5629826406  TIP3      1697            0.0000000000
     23807      1857  TIP3      H2             -5.2697924468        9.9853608868       33.5721441061  TIP3      1697            0.0000000000
     23808      1858  TIP3      OH2            -7.6512433553        6.4881090715       27.5006660966  TIP3      1698            0.0000000000
     23809      1858  TIP3      H1             -8.5880220420        6.5227344394       27.7554389685  TIP3      1698            0.0000000000
     23810      1858  TIP3      H2             -7.2890221433        5.7876066166       28.0879709797  TIP3      1698            0.0000000000
     23811      1859  TIP3      OH2           -13.4708395517        7.7621954761       26.8035526109  TIP3      1699            0.0000000000
     23812      1859  TIP3      H1            -14.2236738571        7.7867924536       26.1839372311  TIP3      1699            0.0000000000
     23813      1859  TIP3      H2            -12.9542567795        6.9752127295       26.5118818699  TIP3      1699            0.0000000000
     23814      1860  TIP3      OH2            -9.6263076122        8.2053481736       23.8569448409  TIP3      1700            0.0000000000
     23815      1860  TIP3      H1             -8.7433808141        8.1077449504       24.2426512776  TIP3      1700            0.0000000000
     23816      1860  TIP3      H2             -9.6467604047        9.1752776156       24.0044841023  TIP3      1700            0.0000000000
     23817      1861  TIP3      OH2            -4.1118671482        5.9592137506       30.6874118489  TIP3      1701            0.0000000000
     23818      1861  TIP3      H1             -4.0846961904        5.6784385755       31.6118275443  TIP3      1701            0.0000000000
     23819      1861  TIP3      H2             -3.5194892662        5.3211577200       30.2651442117  TIP3      1701            0.0000000000
     23820      1862  TIP3      OH2            -0.7779360545       20.9675927158       37.2230126909  TIP3      1702            0.0000000000
     23821      1862  TIP3      H1             -0.6128300382       20.4666950539       36.4088119605  TIP3      1702            0.0000000000
     23822      1862  TIP3      H2              0.0232879456       20.7194143865       37.7364147515  TIP3      1702            0.0000000000
     23823      1863  TIP3      OH2           -12.3694377176       13.4083749249       37.0357411766  TIP3      1703            0.0000000000
     23824      1863  TIP3      H1            -12.5417377858       14.3447882351       36.8488622608  TIP3      1703            0.0000000000
     23825      1863  TIP3      H2            -13.2674317034       13.0294540421       37.1014083381  TIP3      1703            0.0000000000
     23826      1864  TIP3      OH2            -6.6125967006        9.4713529954       29.6663411341  TIP3      1704            0.0000000000
     23827      1864  TIP3      H1             -6.2061990077        9.0602014175       28.8959623601  TIP3      1704            0.0000000000
     23828      1864  TIP3      H2             -7.1913041487        8.7692510070       30.0010858843  TIP3      1704            0.0000000000
     23829      1865  TIP3      OH2           -12.2075591419        5.5904915300       25.8399705405  TIP3      1705            0.0000000000
     23830      1865  TIP3      H1            -12.5202245883        4.6513839695       25.9110314020  TIP3      1705            0.0000000000
     23831      1865  TIP3      H2            -11.7033771549        5.5743102411       25.0009907140  TIP3      1705            0.0000000000
     23832      1866  TIP3      OH2            -8.1379552437        7.3927792129       31.6982616300  TIP3      1706            0.0000000000
     23833      1866  TIP3      H1             -8.9678954047        7.9170831764       31.7316377145  TIP3      1706            0.0000000000
     23834      1866  TIP3      H2             -7.5630350461        7.9003451493       32.2802351685  TIP3      1706            0.0000000000
     23835      1867  TIP3      OH2            -7.3894745559       13.7650242836       24.0199138269  TIP3      1707            0.0000000000
     23836      1867  TIP3      H1             -8.1166745839       13.3842950182       23.4798804938  TIP3      1707            0.0000000000
     23837      1867  TIP3      H2             -7.9039321045       14.1087301195       24.7858056073  TIP3      1707            0.0000000000
     23838      1868  TIP3      OH2            -1.1767613420       13.2053117200       32.3341670583  TIP3      1708            0.0000000000
     23839      1868  TIP3      H1             -0.5010700153       13.1117358448       31.6581327445  TIP3      1708            0.0000000000
     23840      1868  TIP3      H2             -1.9653507341       12.9672399532       31.8032315818  TIP3      1708            0.0000000000
     23841      1869  TIP3      OH2            -3.7073373994        6.8496977072       22.3019759668  TIP3      1709            0.0000000000
     23842      1869  TIP3      H1             -4.5845846157        6.7796814563       21.8774601198  TIP3      1709            0.0000000000
     23843      1869  TIP3      H2             -3.6392509167        7.8120727345       22.3970224202  TIP3      1709            0.0000000000
     23844      1870  TIP3      OH2            -5.7722827464       14.3014178779       36.0084421606  TIP3      1710            0.0000000000
     23845      1870  TIP3      H1             -6.5387398305       14.3440832975       36.6071797596  TIP3      1710            0.0000000000
     23846      1870  TIP3      H2             -5.8491111678       15.1785067310       35.5713169265  TIP3      1710            0.0000000000
     23847      1871  TIP3      OH2            -2.7689641255        9.1174005085       23.7212516324  TIP3      1711            0.0000000000
     23848      1871  TIP3      H1             -2.0688234978        8.8639267370       24.3576181566  TIP3      1711            0.0000000000
     23849      1871  TIP3      H2             -2.3864435495        9.8535521138       23.2133139560  TIP3      1711            0.0000000000
     23850      1872  TIP3      OH2           -12.6991416344       13.2252325908       29.0968606535  TIP3      1712            0.0000000000
     23851      1872  TIP3      H1            -12.1571721801       13.0821960123       28.2971411244  TIP3      1712            0.0000000000
     23852      1872  TIP3      H2            -12.4378710894       12.4852794587       29.6665295934  TIP3      1712            0.0000000000
     23853      1873  TIP3      OH2            -5.4752260156       15.2469173324       23.0537849926  TIP3      1713            0.0000000000
     23854      1873  TIP3      H1             -5.9587442352       16.0996379496       23.1486019295  TIP3      1713            0.0000000000
     23855      1873  TIP3      H2             -6.1106763337       14.5912177285       23.4320324354  TIP3      1713            0.0000000000
     23856      1874  TIP3      OH2           -14.8019737746       10.5454164157       33.9673422626  TIP3      1714            0.0000000000
     23857      1874  TIP3      H1            -15.1467553724       11.0221686652       34.7593652166  TIP3      1714            0.0000000000
     23858      1874  TIP3      H2            -15.5678588736       10.6282476453       33.3796059120  TIP3      1714            0.0000000000
     23859      1875  TIP3      OH2            -8.2982640851       11.1753968840       36.5597124420  TIP3      1715            0.0000000000
     23860      1875  TIP3      H1             -8.6163909318       10.8178317084       35.6995136932  TIP3      1715            0.0000000000
     23861      1875  TIP3      H2             -7.5760089844       10.5333872642       36.7273196187  TIP3      1715            0.0000000000
     23862      1876  TIP3      OH2            -3.5418780582       16.4848809551       35.0520632548  TIP3      1716            0.0000000000
     23863      1876  TIP3      H1             -4.4997861561       16.4302658608       34.8442642918  TIP3      1716            0.0000000000
     23864      1876  TIP3      H2             -3.5335674520       17.1079182852       35.7947913938  TIP3      1716            0.0000000000
     23865      1877  TIP3      OH2             1.5407100081        8.7102828934       23.6639220620  TIP3      1717            0.0000000000
     23866      1877  TIP3      H1              1.4366365994        8.3407885473       22.7796690236  TIP3      1717            0.0000000000
     23867      1877  TIP3      H2              1.7932830353        9.6255725009       23.4205909433  TIP3      1717            0.0000000000
     23868      1878  TIP3      OH2             2.1612347607       14.9839817298       36.1345752975  TIP3      1718            0.0000000000
     23869      1878  TIP3      H1              1.2108303583       14.9482903755       35.8909507749  TIP3      1718            0.0000000000
     23870      1878  TIP3      H2              2.5690499019       14.5282665169       35.3640437191  TIP3      1718            0.0000000000
     23871      1879  TIP3      OH2             0.2683190549       16.9166801097       23.0377707263  TIP3      1719            0.0000000000
     23872      1879  TIP3      H1             -0.2447493524       16.0911474911       23.1672182160  TIP3      1719            0.0000000000
     23873      1879  TIP3      H2              0.4747705997       16.8684729056       22.0830859696  TIP3      1719            0.0000000000
     23874      1880  TIP3      OH2            -2.8171071863       12.6304968332       30.3658644650  TIP3      1720            0.0000000000
     23875      1880  TIP3      H1             -3.6651443329       12.2826650289       30.0068896580  TIP3      1720            0.0000000000
     23876      1880  TIP3      H2             -2.1967735165       11.9325132261       30.0728715058  TIP3      1720            0.0000000000
     23877      1881  TIP3      OH2           -10.1486140113       16.6968609212       26.5764919901  TIP3      1721            0.0000000000
     23878      1881  TIP3      H1             -9.9801994853       17.6458839943       26.4333756274  TIP3      1721            0.0000000000
     23879      1881  TIP3      H2            -11.0992769148       16.7042787578       26.7517473124  TIP3      1721            0.0000000000
     23880      1882  TIP3      OH2            -8.7564860336       14.2836752951       26.2186878063  TIP3      1722            0.0000000000
     23881      1882  TIP3      H1             -9.2152090589       15.1316143082       26.4098068458  TIP3      1722            0.0000000000
     23882      1882  TIP3      H2             -8.5406068515       13.9201816084       27.0836503411  TIP3      1722            0.0000000000
     23883      1883  TIP3      OH2            -7.6221503207       18.4723029937       33.1659002664  TIP3      1723            0.0000000000
     23884      1883  TIP3      H1             -7.5505383255       19.1566068501       32.4690193502  TIP3      1723            0.0000000000
     23885      1883  TIP3      H2             -6.6778612830       18.3568933343       33.3502714947  TIP3      1723            0.0000000000
     23886      1884  TIP3      OH2            -9.7310347435       19.5281370396       25.9709297672  TIP3      1724            0.0000000000
     23887      1884  TIP3      H1            -10.6568879310       19.4652135370       26.2705698345  TIP3      1724            0.0000000000
     23888      1884  TIP3      H2             -9.5478678586       20.4737849126       26.1667255866  TIP3      1724            0.0000000000
     23889      1885  TIP3      OH2            -4.8867157140       14.4922984672       32.7484766832  TIP3      1725            0.0000000000
     23890      1885  TIP3      H1             -4.6630576468       14.2442131990       33.6637546124  TIP3      1725            0.0000000000
     23891      1885  TIP3      H2             -4.3436784005       13.8722889200       32.2295061485  TIP3      1725            0.0000000000
     23892      1886  TIP3      OH2            -2.9677628711       19.6285459685       35.4260844546  TIP3      1726            0.0000000000
     23893      1886  TIP3      H1             -3.2485387946       18.7615436590       35.0885965702  TIP3      1726            0.0000000000
     23894      1886  TIP3      H2             -2.3442424310       19.8131544622       34.6886445254  TIP3      1726            0.0000000000
     23895      1887  TIP3      OH2             2.0101346824       20.2257497658       22.2214927893  TIP3      1727            0.0000000000
     23896      1887  TIP3      H1              2.1888495742       20.1706577098       21.2690984319  TIP3      1727            0.0000000000
     23897      1887  TIP3      H2              1.4155586719       21.0052953338       22.2747758070  TIP3      1727            0.0000000000
     23898      1888  TIP3      OH2           -13.9226145235        6.2475459243       33.8637931569  TIP3      1728            0.0000000000
     23899      1888  TIP3      H1            -14.4692622746        7.0257475012       34.0848103223  TIP3      1728            0.0000000000
     23900      1888  TIP3      H2            -14.5078188360        5.5148481207       34.1119467840  TIP3      1728            0.0000000000
     23901      1889  TIP3      OH2            -1.2742524218       14.5122352870       23.9747702739  TIP3      1729            0.0000000000
     23902      1889  TIP3      H1             -1.8022907346       13.8324612729       24.4519802963  TIP3      1729            0.0000000000
     23903      1889  TIP3      H2             -0.3945767084       14.0888558838       23.9788597321  TIP3      1729            0.0000000000
     23904      1890  TIP3      OH2           -13.8778184906       18.2638852614       32.6447713699  TIP3      1730            0.0000000000
     23905      1890  TIP3      H1            -14.0622768778       17.5482484021       31.9937217041  TIP3      1730            0.0000000000
     23906      1890  TIP3      H2            -14.7915335594       18.5211943897       32.9090117833  TIP3      1730            0.0000000000
     23907      1891  TIP3      OH2            -9.6086872888       16.1468467262       22.5315344170  TIP3      1731            0.0000000000
     23908      1891  TIP3      H1             -8.9408329576       16.3662439652       23.1979959927  TIP3      1731            0.0000000000
     23909      1891  TIP3      H2             -9.5467795574       16.9541096927       21.9572063463  TIP3      1731            0.0000000000
     23910      1892  TIP3      OH2           -12.5374788508       13.6263526105       23.2253833047  TIP3      1732            0.0000000000
     23911      1892  TIP3      H1            -13.2605944148       14.0400143432       23.7414236964  TIP3      1732            0.0000000000
     23912      1892  TIP3      H2            -12.1684119275       14.4291907499       22.7958691930  TIP3      1732            0.0000000000
     23913      1893  TIP3      OH2            -5.2981620112        6.4762999096       33.5403814165  TIP3      1733            0.0000000000
     23914      1893  TIP3      H1             -4.3618986739        6.4088545849       33.7846638507  TIP3      1733            0.0000000000
     23915      1893  TIP3      H2             -5.5504313330        5.5312557548       33.5488794234  TIP3      1733            0.0000000000
     23916      1894  TIP3      OH2            -3.8902607151        4.9631155513       24.3281323600  TIP3      1734            0.0000000000
     23917      1894  TIP3      H1             -3.7287573027        5.6651900115       23.6590553352  TIP3      1734            0.0000000000
     23918      1894  TIP3      H2             -3.6692174557        5.4467647175       25.1512036926  TIP3      1734            0.0000000000
     23919      1895  TIP3      OH2            -6.5768275653       17.7614369918       23.1301760708  TIP3      1735            0.0000000000
     23920      1895  TIP3      H1             -7.1754551626       18.4682617097       23.4503473445  TIP3      1735            0.0000000000
     23921      1895  TIP3      H2             -6.8709708862       17.6333541864       22.2107165829  TIP3      1735            0.0000000000
     23922      1896  TIP3      OH2            -6.6964795538        7.3338602167       24.9659200644  TIP3      1736            0.0000000000
     23923      1896  TIP3      H1             -6.6154105189        8.3009722542       24.8831064945  TIP3      1736            0.0000000000
     23924      1896  TIP3      H2             -7.0259118782        7.2312329094       25.8852012318  TIP3      1736            0.0000000000
     23925      1897  TIP3      OH2            -6.1689774976        8.8082540337       34.3649715075  TIP3      1737            0.0000000000
     23926      1897  TIP3      H1             -6.0422808281        8.7591473955       35.3274198201  TIP3      1737            0.0000000000
     23927      1897  TIP3      H2             -5.8488382091        7.9152298317       34.0808142862  TIP3      1737            0.0000000000
     23928      1898  TIP3      OH2            -6.2878608895        4.6158389576       25.6899259321  TIP3      1738            0.0000000000
     23929      1898  TIP3      H1             -6.5489072919        5.1850626126       26.4395973219  TIP3      1738            0.0000000000
     23930      1898  TIP3      H2             -5.5731826805        5.1662846204       25.3104880449  TIP3      1738            0.0000000000
     23931      1899  TIP3      OH2            -8.9803660910       19.2416176863       23.3423301952  TIP3      1739            0.0000000000
     23932      1899  TIP3      H1             -8.7072279081       19.9934896774       22.8028482372  TIP3      1739            0.0000000000
     23933      1899  TIP3      H2             -9.3337235349       19.6074586018       24.1806198819  TIP3      1739            0.0000000000
     23934      1900  TIP3      OH2           -10.3927092984        5.6699218338       23.5800855511  TIP3      1740            0.0000000000
     23935      1900  TIP3      H1            -10.2399121296        6.6490678422       23.5498098591  TIP3      1740            0.0000000000
     23936      1900  TIP3      H2             -9.4764246670        5.3437698194       23.6009763944  TIP3      1740            0.0000000000
     23937      1901  TIP3      OH2            -0.7178482751        6.5609706566       35.4734519175  TIP3      1741            0.0000000000
     23938      1901  TIP3      H1             -1.6655379894        6.8144175955       35.5548074820  TIP3      1741            0.0000000000
     23939      1901  TIP3      H2             -0.8926329736        5.6577630165       35.1295026715  TIP3      1741            0.0000000000
     23940      1902  TIP3      OH2            -1.4300122471       10.5211764185       29.3987557428  TIP3      1742            0.0000000000
     23941      1902  TIP3      H1             -2.2003555452       10.0109337612       29.0640240930  TIP3      1742            0.0000000000
     23942      1902  TIP3      H2             -0.9960173863        9.9132041047       30.0271481679  TIP3      1742            0.0000000000
     23943      1903  TIP3      OH2           -12.2764270913       16.2356780826       21.7610021322  TIP3      1743            0.0000000000
     23944      1903  TIP3      H1            -11.4693543126       16.4441037047       22.2686095081  TIP3      1743            0.0000000000
     23945      1903  TIP3      H2            -11.8786534373       15.6834439940       21.0518534988  TIP3      1743            0.0000000000
     23946      1904  TIP3      OH2            -0.3757821959       18.8080108470       30.1514176283  TIP3      1744            0.0000000000
     23947      1904  TIP3      H1             -0.5440222603       19.5992305492       29.6104263080  TIP3      1744            0.0000000000
     23948      1904  TIP3      H2             -0.5273638356       19.1519247819       31.0657134633  TIP3      1744            0.0000000000
     23949      1905  TIP3      OH2           -12.4020378891        3.7200604797       29.9005524692  TIP3      1745            0.0000000000
     23950      1905  TIP3      H1            -13.1308165429        3.7746894227       29.2379498224  TIP3      1745            0.0000000000
     23951      1905  TIP3      H2            -12.6612471208        2.8289074626       30.2227055858  TIP3      1745            0.0000000000
     23952      1906  TIP3      OH2           -13.8812952550       16.7135088604       24.6832237052  TIP3      1746            0.0000000000
     23953      1906  TIP3      H1            -14.0573064240       16.7033727113       25.6564655543  TIP3      1746            0.0000000000
     23954      1906  TIP3      H2            -13.9806679396       17.6650217010       24.4716220331  TIP3      1746            0.0000000000
     23955      1907  TIP3      OH2           -15.1765787260       19.7856508478       37.1868654173  TIP3      1747            0.0000000000
     23956      1907  TIP3      H1            -15.3632900111       19.6299530984       38.1231511674  TIP3      1747            0.0000000000
     23957      1907  TIP3      H2            -15.6732281052       19.0501438844       36.7557823183  TIP3      1747            0.0000000000
     23958      1908  TIP3      OH2           -10.6762684238       18.3496712315       38.8466420805  TIP3      1748            0.0000000000
     23959      1908  TIP3      H1            -10.5207763562       18.0531818699       39.7461721968  TIP3      1748            0.0000000000
     23960      1908  TIP3      H2            -11.4878718525       17.8509067174       38.6641131669  TIP3      1748            0.0000000000
     23961      1909  TIP3      OH2            -3.8016498033       17.8690209836       37.6323997570  TIP3      1749            0.0000000000
     23962      1909  TIP3      H1             -4.1154320835       17.0058370894       37.9682475904  TIP3      1749            0.0000000000
     23963      1909  TIP3      H2             -2.8842422616       17.8560345130       37.9700147604  TIP3      1749            0.0000000000
     23964      1910  TIP3      OH2            -1.1543479699       18.5594438696       21.0304368223  TIP3      1750            0.0000000000
     23965      1910  TIP3      H1             -1.4647595725       17.6456792158       21.0312631181  TIP3      1750            0.0000000000
     23966      1910  TIP3      H2             -0.2672359299       18.3692787608       20.6348962792  TIP3      1750            0.0000000000
     23967      1911  TIP3      OH2           -15.0718549948       14.2720821002       38.3741463958  TIP3      1751            0.0000000000
     23968      1911  TIP3      H1            -15.0784986582       13.3093706013       38.1898349575  TIP3      1751            0.0000000000
     23969      1911  TIP3      H2            -15.5487161928       14.5609302054       37.5729676584  TIP3      1751            0.0000000000
     23970      1912  TIP3      OH2           -10.7770762113       14.4862649342       20.5158885268  TIP3      1752            0.0000000000
     23971      1912  TIP3      H1            -10.1634926135       15.0330845799       21.0610965516  TIP3      1752            0.0000000000
     23972      1912  TIP3      H2            -10.1995227500       14.0627868184       19.8722222628  TIP3      1752            0.0000000000
     23973      1913  TIP3      OH2            -8.3427199128       13.7283575732       37.4431565727  TIP3      1753            0.0000000000
     23974      1913  TIP3      H1             -8.4374967148       14.3271551668       36.6596734898  TIP3      1753            0.0000000000
     23975      1913  TIP3      H2             -8.3181011181       12.8245237962       37.0458040293  TIP3      1753            0.0000000000
     23976      1914  TIP3      OH2            -2.9987136499       13.6875889738       35.0487905874  TIP3      1754            0.0000000000
     23977      1914  TIP3      H1             -2.0855512040       13.9328413143       34.7557419543  TIP3      1754            0.0000000000
     23978      1914  TIP3      H2             -3.3133091793       14.6149286001       35.1387656091  TIP3      1754            0.0000000000
     23979      1915  TIP3      OH2           -13.2898911687        9.9803520864       37.5307753482  TIP3      1755            0.0000000000
     23980      1915  TIP3      H1            -14.0316427734       10.4753810142       37.1165885010  TIP3      1755            0.0000000000
     23981      1915  TIP3      H2            -13.4712162595       10.1315250807       38.4758659521  TIP3      1755            0.0000000000
     23982      1916  TIP3      OH2            -9.1153556042       12.1729492723       22.7730976226  TIP3      1756            0.0000000000
     23983      1916  TIP3      H1             -9.6036144272       11.8791251580       23.5719127436  TIP3      1756            0.0000000000
     23984      1916  TIP3      H2             -8.4679334813       11.4514524851       22.7148999817  TIP3      1756            0.0000000000
     23985      1917  TIP3      OH2            -9.8512846237       10.2464371076       34.6333778647  TIP3      1757            0.0000000000
     23986      1917  TIP3      H1            -10.7334017490       10.6787149534       34.5111195831  TIP3      1757            0.0000000000
     23987      1917  TIP3      H2             -9.5169073432       10.3469987275       33.7265613886  TIP3      1757            0.0000000000
     23988      1918  TIP3      OH2            -4.8542620170       12.8252684568       38.5249488988  TIP3      1758            0.0000000000
     23989      1918  TIP3      H1             -4.0437928608       12.4795682607       38.0888514681  TIP3      1758            0.0000000000
     23990      1918  TIP3      H2             -5.1676291241       12.0311240400       39.0020634542  TIP3      1758            0.0000000000
     23991      1919  TIP3      OH2            -9.6845139980        7.8332849907       35.5339493629  TIP3      1759            0.0000000000
     23992      1919  TIP3      H1             -9.5476198241        7.1558073913       34.8350480091  TIP3      1759            0.0000000000
     23993      1919  TIP3      H2             -9.6746925295        8.6724062890       35.0157010919  TIP3      1759            0.0000000000
     23994      1920  TIP3      OH2            -9.3367144185        5.8900399454       33.6075236498  TIP3      1760            0.0000000000
     23995      1920  TIP3      H1             -8.8344873588        6.1727637851       32.8059539000  TIP3      1760            0.0000000000
     23996      1920  TIP3      H2            -10.2531733171        5.9089725513       33.2440761553  TIP3      1760            0.0000000000
     23997      1921  TIP3      OH2            -7.5107157425       12.1253215400       33.9562097766  TIP3      1761            0.0000000000
     23998      1921  TIP3      H1             -7.3942313299       11.5750536185       33.1702872328  TIP3      1761            0.0000000000
     23999      1921  TIP3      H2             -8.3081274456       12.6141769321       33.6595220979  TIP3      1761            0.0000000000
     24000      1922  TIP3      OH2            -3.1959907546        8.9263224247       38.7024272671  TIP3      1762            0.0000000000
     24001      1922  TIP3      H1             -3.2092185880        7.9898467424       38.9423548740  TIP3      1762            0.0000000000
     24002      1922  TIP3      H2             -2.2652167396        9.1459777362       38.8222913008  TIP3      1762            0.0000000000
     24003      1923  TIP3      OH2            -2.5869080462       12.2969340403       37.4022354013  TIP3      1763            0.0000000000
     24004      1923  TIP3      H1             -2.5748561168       13.0139067162       36.7307030860  TIP3      1763            0.0000000000
     24005      1923  TIP3      H2             -1.6554120713       11.9724022649       37.3770394905  TIP3      1763            0.0000000000
     24006      1924  TIP3      OH2           -11.1127039719        8.0401628387       37.7410390037  TIP3      1764            0.0000000000
     24007      1924  TIP3      H1            -12.0512656008        8.0431037336       37.4497678848  TIP3      1764            0.0000000000
     24008      1924  TIP3      H2            -10.6450573371        7.8870903570       36.8872238043  TIP3      1764            0.0000000000
     24009      1925  TIP3      OH2            -8.4842611570        3.3026443354       33.8046532851  TIP3      1765            0.0000000000
     24010      1925  TIP3      H1             -8.7521351206        4.2319858960       33.6453294390  TIP3      1765            0.0000000000
     24011      1925  TIP3      H2             -9.1816050942        2.8110883557       33.3420708066  TIP3      1765            0.0000000000
     24012      1926  TIP3      OH2            -7.7967426984        7.7487411662       37.6402108131  TIP3      1766            0.0000000000
     24013      1926  TIP3      H1             -8.1294961542        7.3274375000       38.4567689739  TIP3      1766            0.0000000000
     24014      1926  TIP3      H2             -8.5275441917        7.5637520273       37.0119146278  TIP3      1766            0.0000000000
     24015      1927  TIP3      OH2            -4.9736219492        7.0881723283       36.7858204864  TIP3      1767            0.0000000000
     24016      1927  TIP3      H1             -5.7684714321        6.5382497715       36.7918351412  TIP3      1767            0.0000000000
     24017      1927  TIP3      H2             -4.4210598417        6.5606668212       37.4175730209  TIP3      1767            0.0000000000
     24018      1928  TIP3      OH2            -3.6779056945        5.3124433839       38.3789729741  TIP3      1768            0.0000000000
     24019      1928  TIP3      H1             -3.4110053434        4.3615809717       38.3276827838  TIP3      1768            0.0000000000
     24020      1928  TIP3      H2             -3.4326883057        5.5596594870       39.2931773596  TIP3      1768            0.0000000000
     24021      1929  TIP3      OH2           -13.5658535818        6.6396783130       37.7884543631  TIP3      1769            0.0000000000
     24022      1929  TIP3      H1            -13.2942363223        5.8926629463       37.2295629535  TIP3      1769            0.0000000000
     24023      1929  TIP3      H2            -13.2660934017        6.4277919675       38.7012133548  TIP3      1769            0.0000000000
     24024      1930  TIP3      OH2            -8.8547757947        2.6435018821       36.4788458519  TIP3      1770            0.0000000000
     24025      1930  TIP3      H1             -8.0003121070        2.2011549784       36.3585596948  TIP3      1770            0.0000000000
     24026      1930  TIP3      H2             -8.9439998086        3.0697666871       35.6077486335  TIP3      1770            0.0000000000
     24027      1931  TIP3      OH2            -8.6850703901        3.7532500087       39.1767559477  TIP3      1771            0.0000000000
     24028      1931  TIP3      H1             -8.7202397539        3.4021068373       38.2667542784  TIP3      1771            0.0000000000
     24029      1931  TIP3      H2             -8.5608004656        4.7052172589       38.9989602805  TIP3      1771            0.0000000000
     24030      1932  TIP3      OH2           -14.7555829583       15.2508795659       21.3194694804  TIP3      1772            0.0000000000
     24031      1932  TIP3      H1            -13.8289533587       15.5798030848       21.4018960121  TIP3      1772            0.0000000000
     24032      1932  TIP3      H2            -14.9545259059       15.4166879542       20.3834303825  TIP3      1772            0.0000000000
     24033      1933  TIP3      OH2           -16.2793808562       20.7431514160       25.7747595825  TIP3      1773            0.0000000000
     24034      1933  TIP3      H1            -17.0453600021       20.3530079213       25.3079984772  TIP3      1773            0.0000000000
     24035      1933  TIP3      H2            -16.2908805325       20.3179059134       26.6660748435  TIP3      1773            0.0000000000
     24036      1934  TIP3      OH2           -16.3031545510       19.6578447024       28.1507770051  TIP3      1774            0.0000000000
     24037      1934  TIP3      H1            -16.1650849263       18.7506710688       27.7823594534  TIP3      1774            0.0000000000
     24038      1934  TIP3      H2            -15.6120514387       19.5821226916       28.8259734695  TIP3      1774            0.0000000000
     24039      1935  TIP3      OH2             2.5101503317       20.1014757907       31.3259209668  TIP3      1775            0.0000000000
     24040      1935  TIP3      H1              2.1119798749       20.8636691661       31.7880809244  TIP3      1775            0.0000000000
     24041      1935  TIP3      H2              1.9643127610       20.0369658096       30.5248197797  TIP3      1775            0.0000000000
     24042      1936  TIP3      OH2             1.1705848831       19.7703208721       34.7041580690  TIP3      1776            0.0000000000
     24043      1936  TIP3      H1              0.3360386766       19.5094730559       34.2405525596  TIP3      1776            0.0000000000
     24044      1936  TIP3      H2              1.2753237027       19.0275390673       35.3420795254  TIP3      1776            0.0000000000
     24045      1937  TIP3      OH2             0.4980881514       15.5227430786       38.9679485899  TIP3      1777            0.0000000000
     24046      1937  TIP3      H1             -0.3994711930       15.3574907996       39.3136737007  TIP3      1777            0.0000000000
     24047      1937  TIP3      H2              0.9200210858       16.1396997820       39.6094235120  TIP3      1777            0.0000000000
     24048      1938  TIP3      OH2             1.4667158789       13.6418719596       24.1861061620  TIP3      1778            0.0000000000
     24049      1938  TIP3      H1              2.4399235654       13.6423069735       24.1309574879  TIP3      1778            0.0000000000
     24050      1938  TIP3      H2              1.2939958319       12.9082190174       24.8173929173  TIP3      1778            0.0000000000
     24051      1939  TIP3      OH2             1.9403243132       11.6066985465       25.9241573622  TIP3      1779            0.0000000000
     24052      1939  TIP3      H1              1.1264754881       11.2697952028       26.3931514284  TIP3      1779            0.0000000000
     24053      1939  TIP3      H2              2.4988087764       11.7584410315       26.7247346877  TIP3      1779            0.0000000000
     24054      1940  TIP3      OH2             1.3690464045       14.2361359826       30.9730410986  TIP3      1780            0.0000000000
     24055      1940  TIP3      H1              2.1025505876       13.5845642986       30.8858029072  TIP3      1780            0.0000000000
     24056      1940  TIP3      H2              1.4401164230       14.5101238134       31.9081455812  TIP3      1780            0.0000000000
     24057      1941  TIP3      OH2             0.4115007973       16.8182433296       33.1096924161  TIP3      1781            0.0000000000
     24058      1941  TIP3      H1              0.4741620274       17.2678756444       33.9714589165  TIP3      1781            0.0000000000
     24059      1941  TIP3      H2             -0.4512314133       17.2129951609       32.8443015797  TIP3      1781            0.0000000000
     24060      1942  TIP3      OH2             1.3978013787       11.1750204267       22.4897431671  TIP3      1782            0.0000000000
     24061      1942  TIP3      H1              0.5505549375       11.4516651688       22.1069375011  TIP3      1782            0.0000000000
     24062      1942  TIP3      H2              1.6305241291       11.9755136751       22.9761616675  TIP3      1782            0.0000000000
     24063      1943  TIP3      OH2            -0.2120637025       10.5604820561       27.0200865191  TIP3      1783            0.0000000000
     24064      1943  TIP3      H1             -0.5837329832        9.6790962397       26.8483585869  TIP3      1783            0.0000000000
     24065      1943  TIP3      H2             -0.5137416735       10.7310594870       27.9402348574  TIP3      1783            0.0000000000
     24066      1944  TIP3      OH2           -15.4147494123       12.2216647872       30.6806084559  TIP3      1784            0.0000000000
     24067      1944  TIP3      H1            -15.5659467991       12.2067069630       29.7133880116  TIP3      1784            0.0000000000
     24068      1944  TIP3      H2            -14.4645187084       12.4349401019       30.6939492348  TIP3      1784            0.0000000000
     24069      1945  TIP3      OH2            -0.0532847678       12.1544494912       37.3061434886  TIP3      1785            0.0000000000
     24070      1945  TIP3      H1              0.3749311676       11.2698884347       37.3223900122  TIP3      1785            0.0000000000
     24071      1945  TIP3      H2              0.3575834781       12.4891550540       36.4733172874  TIP3      1785            0.0000000000
     24072      1946  TIP3      OH2             1.7230081900        9.8906533583       37.6917934485  TIP3      1786            0.0000000000
     24073      1946  TIP3      H1              1.0840160844        9.4557272335       37.0806687214  TIP3      1786            0.0000000000
     24074      1946  TIP3      H2              2.5367804181        9.3835716604       37.4692523782  TIP3      1786            0.0000000000
     24075      1947  TIP3      OH2            -0.1766746541        6.2077404779       19.7683942819  TIP3      1787            0.0000000000
     24076      1947  TIP3      H1              0.0978216505        5.9100045874       20.6368823164  TIP3      1787            0.0000000000
     24077      1947  TIP3      H2             -1.1387660499        6.2216499207       19.8281996089  TIP3      1787            0.0000000000
     24078      1948  TIP3      OH2            -0.8001485719        8.1234361250       25.5095598447  TIP3      1788            0.0000000000
     24079      1948  TIP3      H1             -0.7093109282        7.1463410244       25.5255405658  TIP3      1788            0.0000000000
     24080      1948  TIP3      H2             -0.1310039152        8.3431010041       24.8413417355  TIP3      1788            0.0000000000
     24081      1949  TIP3      OH2             0.2500982437        8.3017555856       30.4192054255  TIP3      1789            0.0000000000
     24082      1949  TIP3      H1              1.1242252841        8.6770995803       30.6842053231  TIP3      1789            0.0000000000
     24083      1949  TIP3      H2             -0.1562992927        8.1723291428       31.3041572601  TIP3      1789            0.0000000000
     24084      1950  TIP3      OH2             0.0215000731        8.9134931546       33.0018370603  TIP3      1790            0.0000000000
     24085      1950  TIP3      H1             -0.6083805499        9.3851304041       33.5763235045  TIP3      1790            0.0000000000
     24086      1950  TIP3      H2              0.5271470502        9.6449095791       32.5655970342  TIP3      1790            0.0000000000
     24087      1951  TIP3      OH2           -15.6709296881        7.3828281859       36.2941670278  TIP3      1791            0.0000000000
     24088      1951  TIP3      H1            -14.8799341918        7.2447201772       36.8508909494  TIP3      1791            0.0000000000
     24089      1951  TIP3      H2            -16.2865247471        6.7300748243       36.6746946653  TIP3      1791            0.0000000000
     24090      1952  TIP3      OH2             1.9649241903        2.6956980476       37.9755800775  TIP3      1792            0.0000000000
     24091      1952  TIP3      H1              2.8726228072        2.4007003233       38.2117053318  TIP3      1792            0.0000000000
     24092      1952  TIP3      H2              2.1275784972        3.6400164085       37.8550950440  TIP3      1792            0.0000000000
     24093      1953  TIP3      OH2            -0.3775949580        5.3860714615       25.2177352073  TIP3      1793            0.0000000000
     24094      1953  TIP3      H1             -0.0056929899        5.0975686481       26.0762041208  TIP3      1793            0.0000000000
     24095      1953  TIP3      H2             -0.7879806565        4.5624836781       24.8674149389  TIP3      1793            0.0000000000
     24096      1954  TIP3      OH2           -14.8038627968        5.9004013032       30.5830337757  TIP3      1794            0.0000000000
     24097      1954  TIP3      H1            -14.8439015431        5.1117618707       29.9919312228  TIP3      1794            0.0000000000
     24098      1954  TIP3      H2            -14.1124571454        6.4252769701       30.1481331671  TIP3      1794            0.0000000000
     24099      1955  TIP3      OH2           -16.1523809834        9.1406209972       30.5660757946  TIP3      1795            0.0000000000
     24100      1955  TIP3      H1            -15.7018094922        8.6606251777       29.8404391775  TIP3      1795            0.0000000000
     24101      1955  TIP3      H2            -15.7164080010       10.0105677040       30.5391986421  TIP3      1795            0.0000000000
     24102      1956  TIP3      OH2             2.0478447709        5.6342968894       36.6306282382  TIP3      1796            0.0000000000
     24103      1956  TIP3      H1              1.4775626839        5.5603255819       37.4152287877  TIP3      1796            0.0000000000
     24104      1956  TIP3      H2              1.6449518471        4.9534271577       36.0481546529  TIP3      1796            0.0000000000
     24105      1957  TIP3      OH2             2.0686259126        4.9181131679       21.4940273886  TIP3      1797            0.0000000000
     24106      1957  TIP3      H1              2.0267745303        4.8374264183       20.5288602022  TIP3      1797            0.0000000000
     24107      1957  TIP3      H2              2.5441013529        5.7665233162       21.6154308832  TIP3      1797            0.0000000000
     24108      1958  TIP3      OH2           -16.0964291088        5.6961263334       25.0039485451  TIP3      1798            0.0000000000
     24109      1958  TIP3      H1            -16.9772352052        5.3256248697       24.8339314024  TIP3      1798            0.0000000000
     24110      1958  TIP3      H2            -15.5778500877        5.1892757576       24.3605730662  TIP3      1798            0.0000000000
     24111      1959  TIP3      OH2            -0.9415563780       20.2435663637       27.0934772718  TIP3      1799            0.0000000000
     24112      1959  TIP3      H1             -0.2628555825       20.1934689766       26.4115900218  TIP3      1799            0.0000000000
     24113      1959  TIP3      H2             -0.6404262675       20.9449877443       27.6987063306  TIP3      1799            0.0000000000
     24114      1960  TIP3      OH2           -15.8157190620        3.8162783314       33.1416884344  TIP3      1800            0.0000000000
     24115      1960  TIP3      H1            -16.1173840741        2.9456320774       32.8276158873  TIP3      1800            0.0000000000
     24116      1960  TIP3      H2            -15.9845231362        4.3775920143       32.3630058282  TIP3      1800            0.0000000000
     24117      1961  TIP3      OH2           -13.2464755014       17.1778586726       37.2949927866  TIP3      1801            0.0000000000
     24118      1961  TIP3      H1            -13.9405567308       16.7157349803       36.7801907507  TIP3      1801            0.0000000000
     24119      1961  TIP3      H2            -13.7989343850       17.6610424926       37.9244488773  TIP3      1801            0.0000000000
     24120      1962  TIP3      OH2           -10.3855464767       18.9219764956       34.0771239410  TIP3      1802            0.0000000000
     24121      1962  TIP3      H1            -10.8352065104       19.4985572607       33.4150823152  TIP3      1802            0.0000000000
     24122      1962  TIP3      H2             -9.6812192969       18.5345943431       33.5187826411  TIP3      1802            0.0000000000
     24123      1963  TIP3      OH2            -6.4036333593       19.1844833534       36.1444773299  TIP3      1803            0.0000000000
     24124      1963  TIP3      H1             -6.1357600732       19.1811334409       37.0823645966  TIP3      1803            0.0000000000
     24125      1963  TIP3      H2             -5.6997897649       19.7918748455       35.8205885146  TIP3      1803            0.0000000000
     24126      1964  TIP3      OH2            -4.8467992377       21.3653540722       35.9751193390  TIP3      1804            0.0000000000
     24127      1964  TIP3      H1             -4.0281362507       20.9713658662       35.5862800125  TIP3      1804            0.0000000000
     24128      1964  TIP3      H2             -4.4914165238       21.6187303200       36.8505333207  TIP3      1804            0.0000000000
     24129      1965  TIP3      OH2             1.1130607836        3.3419305880       35.1189851871  TIP3      1805            0.0000000000
     24130      1965  TIP3      H1              0.2191852955        3.6659107857       34.8863235421  TIP3      1805            0.0000000000
     24131      1965  TIP3      H2              1.1022441718        2.4506034726       34.7320416915  TIP3      1805            0.0000000000
     24132      1966  TIP3      OH2           -13.4882962614       21.8495675065       32.9758742681  TIP3      1806            0.0000000000
     24133      1966  TIP3      H1            -13.7456082673       22.2677103074       32.1411833248  TIP3      1806            0.0000000000
     24134      1966  TIP3      H2            -14.0391684593       22.3556194406       33.5919802509  TIP3      1806            0.0000000000
     24135      1967  TIP3      OH2           -10.9447857985       21.0374675741       32.4499456526  TIP3      1807            0.0000000000
     24136      1967  TIP3      H1            -11.9088066371       21.2008751122       32.6156110428  TIP3      1807            0.0000000000
     24137      1967  TIP3      H2            -10.7387044304       21.8418128681       31.9234374660  TIP3      1807            0.0000000000
     24138      1968  TIP3      OH2            -6.8511449735       20.7069623386       31.6715771849  TIP3      1808            0.0000000000
     24139      1968  TIP3      H1             -6.7414650877       20.9928776567       30.7482208426  TIP3      1808            0.0000000000
     24140      1968  TIP3      H2             -6.3982640019       21.4015992988       32.1831128747  TIP3      1808            0.0000000000
     24141      1969  TIP3      OH2            -4.6713276307       19.5558039449       33.1580335929  TIP3      1809            0.0000000000
     24142      1969  TIP3      H1             -5.2794654020       19.8440585736       32.4472614938  TIP3      1809            0.0000000000
     24143      1969  TIP3      H2             -3.8012770577       19.7963830163       32.7780441229  TIP3      1809            0.0000000000
     24144      1970  TIP3      OH2            -1.8309525376       22.2403455626       33.9717634245  TIP3      1810            0.0000000000
     24145      1970  TIP3      H1             -1.6301228260       22.8719404802       33.2454783537  TIP3      1810            0.0000000000
     24146      1970  TIP3      H2             -1.7428838708       21.3796836803       33.5035637169  TIP3      1810            0.0000000000
     24147      1971  TIP3      OH2           -14.0227882768       19.5416099031       30.1281984131  TIP3      1811            0.0000000000
     24148      1971  TIP3      H1            -14.0090290168       18.9775527359       30.9336947074  TIP3      1811            0.0000000000
     24149      1971  TIP3      H2            -13.3043048388       19.0991438336       29.6139248541  TIP3      1811            0.0000000000
     24150      1972  TIP3      OH2           -11.7560104993       18.6671255277       29.0048716388  TIP3      1812            0.0000000000
     24151      1972  TIP3      H1            -11.8359573022       17.7145000729       29.2191562273  TIP3      1812            0.0000000000
     24152      1972  TIP3      H2            -11.0240522913       18.8444423232       29.6433048408  TIP3      1812            0.0000000000
     24153      1973  TIP3      OH2            -9.7091008163       18.8195548814       30.6224812072  TIP3      1813            0.0000000000
     24154      1973  TIP3      H1             -8.8601698771       18.7027318874       30.1252779648  TIP3      1813            0.0000000000
     24155      1973  TIP3      H2             -9.5028186232       19.5731951908       31.1914247225  TIP3      1813            0.0000000000
     24156      1974  TIP3      OH2            -6.2814729706        4.3858939868       28.4854131637  TIP3      1814            0.0000000000
     24157      1974  TIP3      H1             -6.9027948413        3.6976545056       28.8128211351  TIP3      1814            0.0000000000
     24158      1974  TIP3      H2             -5.4322710184        4.0360441799       28.7944471215  TIP3      1814            0.0000000000
     24159      1975  TIP3      OH2            -0.8303300687        3.0219147992       28.7786899240  TIP3      1815            0.0000000000
     24160      1975  TIP3      H1             -0.4663420223        3.8637218280       28.4369232182  TIP3      1815            0.0000000000
     24161      1975  TIP3      H2             -1.7527190243        3.2995838056       28.9645179937  TIP3      1815            0.0000000000
     24162      1976  TIP3      OH2             0.9731189983        4.5186297886       27.5271461926  TIP3      1816            0.0000000000
     24163      1976  TIP3      H1              1.3670474563        3.6294222318       27.6484522775  TIP3      1816            0.0000000000
     24164      1976  TIP3      H2              1.7580721722        5.0978045703       27.6079013724  TIP3      1816            0.0000000000
     24165      1977  TIP3      OH2           -12.9876954181        3.0865813711       26.0835297484  TIP3      1817            0.0000000000
     24166      1977  TIP3      H1            -13.7818569989        3.1862393785       26.6551258238  TIP3      1817            0.0000000000
     24167      1977  TIP3      H2            -12.6476574876        2.2113657321       26.3713402864  TIP3      1817            0.0000000000
     24168      1978  TIP3      OH2            -9.0567548988        3.0308774942       26.7187009402  TIP3      1818            0.0000000000
     24169      1978  TIP3      H1             -8.0882840755        2.9431198563       26.7160496288  TIP3      1818            0.0000000000
     24170      1978  TIP3      H2             -9.2270080061        3.7660352604       27.3220310363  TIP3      1818            0.0000000000
     24171      1979  TIP3      OH2            -3.4171070552        3.6337030758       28.5303603252  TIP3      1819            0.0000000000
     24172      1979  TIP3      H1             -3.5120122486        3.8931493938       27.6023334611  TIP3      1819            0.0000000000
     24173      1979  TIP3      H2             -3.8613614338        2.7492318223       28.5441286410  TIP3      1819            0.0000000000
     24174      1980  TIP3      OH2            -1.7826044038        3.2423117929       24.1621136403  TIP3      1820            0.0000000000
     24175      1980  TIP3      H1             -2.5780910309        3.8104354955       24.2694539151  TIP3      1820            0.0000000000
     24176      1980  TIP3      H2             -2.1897347473        2.3467568953       24.1976926952  TIP3      1820            0.0000000000
     24177      1981  TIP3      OH2           -14.7638839940       19.1637491392       23.8390384411  TIP3      1821            0.0000000000
     24178      1981  TIP3      H1            -15.6791610964       19.2192587627       24.1464521677  TIP3      1821            0.0000000000
     24179      1981  TIP3      H2            -14.6575468759       19.9482666234       23.2905378785  TIP3      1821            0.0000000000
     24180      1982  TIP3      OH2            -7.6426144359        5.1622412007       23.3797293750  TIP3      1822            0.0000000000
     24181      1982  TIP3      H1             -7.6066347077        4.8436293586       24.3013305518  TIP3      1822            0.0000000000
     24182      1982  TIP3      H2             -7.3864006166        6.0972104765       23.5538081399  TIP3      1822            0.0000000000
     24183      1983  TIP3      OH2            -5.8222881500       20.5981914944       22.1072617503  TIP3      1823            0.0000000000
     24184      1983  TIP3      H1             -5.0242815061       20.6901124143       21.5698842919  TIP3      1823            0.0000000000
     24185      1983  TIP3      H2             -6.4492012679       20.1556651001       21.4733705019  TIP3      1823            0.0000000000
     24186      1984  TIP3      OH2             1.1759451598       19.7702792044       25.1127884203  TIP3      1824            0.0000000000
     24187      1984  TIP3      H1              1.2115411297       18.9100501801       24.6748376645  TIP3      1824            0.0000000000
     24188      1984  TIP3      H2              1.5514085946       20.3512714757       24.4229235650  TIP3      1824            0.0000000000
     24189      1985  TIP3      OH2           -13.8591503068        3.9301997485       36.3124098733  TIP3      1825            0.0000000000
     24190      1985  TIP3      H1            -14.4726722656        3.2093421875       36.0850652333  TIP3      1825            0.0000000000
     24191      1985  TIP3      H2            -13.0426912659        3.6885053823       35.8362023464  TIP3      1825            0.0000000000
     24192      1986  TIP3      OH2           -11.6518696096        3.2486337081       38.5003427853  TIP3      1826            0.0000000000
     24193      1986  TIP3      H1            -10.8165918243        3.4116780030       38.0310746779  TIP3      1826            0.0000000000
     24194      1986  TIP3      H2            -11.5438012985        2.2925926330       38.6307372698  TIP3      1826            0.0000000000
     24195      1987  TIP3      OH2            -3.2132494758        2.7138577333       38.5029559162  TIP3      1827            0.0000000000
     24196      1987  TIP3      H1             -3.1574895056        2.0990590735       39.2620617256  TIP3      1827            0.0000000000
     24197      1987  TIP3      H2             -2.3323356464        2.5709092229       38.0686514388  TIP3      1827            0.0000000000
     24198      1988  TIP3      OH2            -0.4166383997       18.2146130619       36.1942597775  TIP3      1828            0.0000000000
     24199      1988  TIP3      H1             -1.3330298570       18.4502236104       36.4137048254  TIP3      1828            0.0000000000
     24200      1988  TIP3      H2              0.0697900072       18.5125451507       36.9865295577  TIP3      1828            0.0000000000
     24201      1989  TIP3      OH2            14.7961850399       12.5712231593       26.8880638201  TIP3      1829            0.0000000000
     24202      1989  TIP3      H1             14.3945116368       13.4464865352       26.7000497864  TIP3      1829            0.0000000000
     24203      1989  TIP3      H2             14.1034270518       11.9526988082       26.6153389365  TIP3      1829            0.0000000000
     24204      1990  TIP3      OH2            13.2233211862       11.9710053376       30.1566818437  TIP3      1830            0.0000000000
     24205      1990  TIP3      H1             13.4962182136       11.4203825165       30.9171904604  TIP3      1830            0.0000000000
     24206      1990  TIP3      H2             12.6157747711       11.3689498732       29.6726049002  TIP3      1830            0.0000000000
     24207      1991  TIP3      OH2             5.6257802205       11.5602787464       31.4460582137  TIP3      1831            0.0000000000
     24208      1991  TIP3      H1              5.8834167416       11.0187866083       32.2066112389  TIP3      1831            0.0000000000
     24209      1991  TIP3      H2              5.7685691853       12.4621774851       31.8035785570  TIP3      1831            0.0000000000
     24210      1992  TIP3      OH2            16.8230998092       14.5763511599       28.4799273467  TIP3      1832            0.0000000000
     24211      1992  TIP3      H1             16.9396943310       13.7793279255       29.0403514621  TIP3      1832            0.0000000000
     24212      1992  TIP3      H2             16.4466735610       15.2030039610       29.1063311702  TIP3      1832            0.0000000000
     24213      1993  TIP3      OH2             6.6449319289       16.7300275074       29.0665844204  TIP3      1833            0.0000000000
     24214      1993  TIP3      H1              6.4125871755       16.1799893086       29.8398519120  TIP3      1833            0.0000000000
     24215      1993  TIP3      H2              7.5454013120       16.3827617656       28.9319680181  TIP3      1833            0.0000000000
     24216      1994  TIP3      OH2             3.2741515757        9.1409373191       25.5832372390  TIP3      1834            0.0000000000
     24217      1994  TIP3      H1              3.0345843808       10.0602659190       25.7759553169  TIP3      1834            0.0000000000
     24218      1994  TIP3      H2              2.4189677375        8.8423950299       25.2145537822  TIP3      1834            0.0000000000
     24219      1995  TIP3      OH2             3.5798408597       11.9131789418       28.0795996843  TIP3      1835            0.0000000000
     24220      1995  TIP3      H1              3.8502584194       10.9870534420       28.2864679173  TIP3      1835            0.0000000000
     24221      1995  TIP3      H2              4.4568525877       12.3485149537       28.0678961536  TIP3      1835            0.0000000000
     24222      1996  TIP3      OH2            14.0515123710       19.8915182406       28.2486788047  TIP3      1836            0.0000000000
     24223      1996  TIP3      H1             14.8711328208       19.4395544443       27.9430523924  TIP3      1836            0.0000000000
     24224      1996  TIP3      H2             13.9768845001       19.4247342798       29.0987901255  TIP3      1836            0.0000000000
     24225      1997  TIP3      OH2            11.7409491141       14.3271102668       30.8367596232  TIP3      1837            0.0000000000
     24226      1997  TIP3      H1             12.1308324593       13.5998764649       30.3096078838  TIP3      1837            0.0000000000
     24227      1997  TIP3      H2             12.5494746611       14.6236615871       31.2981762905  TIP3      1837            0.0000000000
     24228      1998  TIP3      OH2            19.8001045418        6.4439849091       31.3334568718  TIP3      1838            0.0000000000
     24229      1998  TIP3      H1             20.1552862434        6.9124901416       32.1039068154  TIP3      1838            0.0000000000
     24230      1998  TIP3      H2             20.6175916285        6.0462857850       30.9972930469  TIP3      1838            0.0000000000
     24231      1999  TIP3      OH2            14.2176024825        8.8728826328       31.2054256061  TIP3      1839            0.0000000000
     24232      1999  TIP3      H1             14.6548778995        8.2984587033       31.8783897026  TIP3      1839            0.0000000000
     24233      1999  TIP3      H2             14.8042909988        8.7298481405       30.4423352970  TIP3      1839            0.0000000000
     24234      2000  TIP3      OH2             7.6521292053        6.8176179006       28.0655731295  TIP3      1840            0.0000000000
     24235      2000  TIP3      H1              8.1203440831        7.5600014731       27.6584381311  TIP3      1840            0.0000000000
     24236      2000  TIP3      H2              7.3233976303        6.3670909200       27.2805583592  TIP3      1840            0.0000000000
     24237      2001  TIP3      OH2            15.8287512777        6.6432012048       27.0029345183  TIP3      1841            0.0000000000
     24238      2001  TIP3      H1             16.3465920719        6.5846215075       27.8427474019  TIP3      1841            0.0000000000
     24239      2001  TIP3      H2             16.4809869887        7.1274038446       26.4706655381  TIP3      1841            0.0000000000
     24240      2002  TIP3      OH2             4.4362379233        9.4531250919       28.9487284198  TIP3      1842            0.0000000000
     24241      2002  TIP3      H1              5.1654990078        9.4054006934       29.5927637981  TIP3      1842            0.0000000000
     24242      2002  TIP3      H2              4.8614613588        9.0574965741       28.1667419133  TIP3      1842            0.0000000000
     24243      2003  TIP3      OH2             9.2691412176       10.7692434816       28.3938723261  TIP3      1843            0.0000000000
     24244      2003  TIP3      H1             10.0861065600       10.2771754167       28.6089256569  TIP3      1843            0.0000000000
     24245      2003  TIP3      H2              8.8739487178       10.1309308150       27.7514946534  TIP3      1843            0.0000000000
     24246      2004  TIP3      OH2            21.0266818777        7.0208233693       33.9959353297  TIP3      1844            0.0000000000
     24247      2004  TIP3      H1             20.6412872727        7.8918230804       33.7546277363  TIP3      1844            0.0000000000
     24248      2004  TIP3      H2             20.3558134423        6.8203976363       34.6800311085  TIP3      1844            0.0000000000
     24249      2005  TIP3      OH2             6.8569829892        5.8077009139       32.4508173137  TIP3      1845            0.0000000000
     24250      2005  TIP3      H1              6.5976416219        6.4885683007       31.8017141860  TIP3      1845            0.0000000000
     24251      2005  TIP3      H2              6.1473423464        5.9327513301       33.1203601115  TIP3      1845            0.0000000000
     24252      2006  TIP3      OH2            14.0947947577       15.4995283548       25.9293197458  TIP3      1846            0.0000000000
     24253      2006  TIP3      H1             14.0981428535       15.1629232994       25.0174114002  TIP3      1846            0.0000000000
     24254      2006  TIP3      H2             13.8156154344       16.4183064848       25.8086929782  TIP3      1846            0.0000000000
     24255      2007  TIP3      OH2             9.3824351460       13.4900916096       32.0602516267  TIP3      1847            0.0000000000
     24256      2007  TIP3      H1              8.9511275776       14.2280256437       32.5434270580  TIP3      1847            0.0000000000
     24257      2007  TIP3      H2             10.0961610864       13.9652214029       31.5864129776  TIP3      1847            0.0000000000
     24258      2008  TIP3      OH2            17.5831909484        6.7126827330       29.1306250014  TIP3      1848            0.0000000000
     24259      2008  TIP3      H1             17.1136221944        6.0608837161       29.6956580899  TIP3      1848            0.0000000000
     24260      2008  TIP3      H2             18.3595476925        6.9050190464       29.6817503471  TIP3      1848            0.0000000000
     24261      2009  TIP3      OH2             6.6345198925        7.6912983765       30.3403298035  TIP3      1849            0.0000000000
     24262      2009  TIP3      H1              7.3330550981        8.2697535706       30.6893004618  TIP3      1849            0.0000000000
     24263      2009  TIP3      H2              6.9812568012        7.4313060909       29.4485025905  TIP3      1849            0.0000000000
     24264      2010  TIP3      OH2             8.0512436821       15.3056178668       33.3598248848  TIP3      1850            0.0000000000
     24265      2010  TIP3      H1              7.5756011788       15.3689341057       32.5012647479  TIP3      1850            0.0000000000
     24266      2010  TIP3      H2              7.3208015342       14.9075857681       33.8631491291  TIP3      1850            0.0000000000
     24267      2011  TIP3      OH2             4.0795824371       14.7937048251       23.6978834006  TIP3      1851            0.0000000000
     24268      2011  TIP3      H1              3.9184774139       15.1904653197       22.8132000900  TIP3      1851            0.0000000000
     24269      2011  TIP3      H2              4.7976644259       15.3679874084       24.0086337823  TIP3      1851            0.0000000000
     24270      2012  TIP3      OH2            17.6590188617       16.6911419908       31.2100105226  TIP3      1852            0.0000000000
     24271      2012  TIP3      H1             16.6977469653       16.8912380480       31.3210235501  TIP3      1852            0.0000000000
     24272      2012  TIP3      H2             17.7799814580       16.9294997894       30.2763294283  TIP3      1852            0.0000000000
     24273      2013  TIP3      OH2            17.9701094697        4.3948171951       32.5480831209  TIP3      1853            0.0000000000
     24274      2013  TIP3      H1             17.1543167915        4.9000669912       32.3886729670  TIP3      1853            0.0000000000
     24275      2013  TIP3      H2             18.4835267567        4.7383864640       31.7914966482  TIP3      1853            0.0000000000
     24276      2014  TIP3      OH2            10.7235637359        2.1392611405       30.4067472222  TIP3      1854            0.0000000000
     24277      2014  TIP3      H1              9.8491374012        2.1947553725       29.9803499241  TIP3      1854            0.0000000000
     24278      2014  TIP3      H2             11.0014784006        3.0603232178       30.2421164777  TIP3      1854            0.0000000000
     24279      2015  TIP3      OH2            16.1354255343       18.2969953185       27.6039234322  TIP3      1855            0.0000000000
     24280      2015  TIP3      H1             16.0834306555       17.5482519061       26.9850271193  TIP3      1855            0.0000000000
     24281      2015  TIP3      H2             17.0122390368       18.7053809367       27.4170258623  TIP3      1855            0.0000000000
     24282      2016  TIP3      OH2            17.2534626665       16.4540018504       25.8583214135  TIP3      1856            0.0000000000
     24283      2016  TIP3      H1             17.3500889378       15.6600559735       25.2667105503  TIP3      1856            0.0000000000
     24284      2016  TIP3      H2             17.0779093122       15.9488253487       26.6800922767  TIP3      1856            0.0000000000
     24285      2017  TIP3      OH2            18.2812349505       15.0527477924       34.2792499707  TIP3      1857            0.0000000000
     24286      2017  TIP3      H1             17.8695105002       14.8112200784       33.4287069586  TIP3      1857            0.0000000000
     24287      2017  TIP3      H2             18.7337801889       15.8779318550       33.9885089443  TIP3      1857            0.0000000000
     24288      2018  TIP3      OH2            13.3317369080       12.2418312771       24.1628949830  TIP3      1858            0.0000000000
     24289      2018  TIP3      H1             12.4999966184       12.2410465597       23.6833617327  TIP3      1858            0.0000000000
     24290      2018  TIP3      H2             13.8614442591       11.6445826010       23.6066714818  TIP3      1858            0.0000000000
     24291      2019  TIP3      OH2            20.3796124097       11.3565430660       32.4425672527  TIP3      1859            0.0000000000
     24292      2019  TIP3      H1             19.5876855743       11.8015354547       32.0854367957  TIP3      1859            0.0000000000
     24293      2019  TIP3      H2             21.0399906336       11.5836297245       31.7385798850  TIP3      1859            0.0000000000
     24294      2020  TIP3      OH2            16.7864515275       11.9857277034       25.2628373457  TIP3      1860            0.0000000000
     24295      2020  TIP3      H1             16.0410897952       12.2184940841       25.8732357816  TIP3      1860            0.0000000000
     24296      2020  TIP3      H2             17.4017715842       11.5873588753       25.9154793852  TIP3      1860            0.0000000000
     24297      2021  TIP3      OH2            16.8420069298       10.0220920593       34.3750695541  TIP3      1861            0.0000000000
     24298      2021  TIP3      H1             16.1357221869       10.6559159225       34.1550872339  TIP3      1861            0.0000000000
     24299      2021  TIP3      H2             16.6757904739        9.3281747996       33.6898715720  TIP3      1861            0.0000000000
     24300      2022  TIP3      OH2             8.8137490346       12.6569911469       26.4002355360  TIP3      1862            0.0000000000
     24301      2022  TIP3      H1              8.2757515767       12.1037042198       25.7994926699  TIP3      1862            0.0000000000
     24302      2022  TIP3      H2              8.6348784776       12.2397627718       27.2710255340  TIP3      1862            0.0000000000
     24303      2023  TIP3      OH2             9.5227569719       15.8420491620       29.6552965290  TIP3      1863            0.0000000000
     24304      2023  TIP3      H1              9.7219813464       15.7398482028       28.7128305442  TIP3      1863            0.0000000000
     24305      2023  TIP3      H2             10.2308578260       15.3111375540       30.0751758618  TIP3      1863            0.0000000000
     24306      2024  TIP3      OH2             8.3307369871       11.4189205618       30.8357387634  TIP3      1864            0.0000000000
     24307      2024  TIP3      H1              8.5352506731       11.4650010970       29.8753356541  TIP3      1864            0.0000000000
     24308      2024  TIP3      H2              8.7452682090       12.2359936034       31.1923048526  TIP3      1864            0.0000000000
     24309      2025  TIP3      OH2            15.0626430411       17.1527238366       31.5511521052  TIP3      1865            0.0000000000
     24310      2025  TIP3      H1             15.0258013690       17.7947259767       32.2890702017  TIP3      1865            0.0000000000
     24311      2025  TIP3      H2             14.6769968255       16.3595998556       31.9773166314  TIP3      1865            0.0000000000
     24312      2026  TIP3      OH2             9.7215771418       15.6831887727       35.4616238030  TIP3      1866            0.0000000000
     24313      2026  TIP3      H1              9.0417987283       16.2437730662       35.8985417853  TIP3      1866            0.0000000000
     24314      2026  TIP3      H2              9.2639238555       15.5141484157       34.5987451603  TIP3      1866            0.0000000000
     24315      2027  TIP3      OH2            15.6731401286       11.1272589100       23.0185101214  TIP3      1867            0.0000000000
     24316      2027  TIP3      H1             16.0425284209       11.3929554124       23.8986630791  TIP3      1867            0.0000000000
     24317      2027  TIP3      H2             15.9638907849       11.8574516116       22.4657420531  TIP3      1867            0.0000000000
     24318      2028  TIP3      OH2             6.4618774429       12.0864995537       34.2768921260  TIP3      1868            0.0000000000
     24319      2028  TIP3      H1              6.4799800318       12.7792001010       34.9482651225  TIP3      1868            0.0000000000
     24320      2028  TIP3      H2              5.8161798450       11.4681870139       34.6750046243  TIP3      1868            0.0000000000
     24321      2029  TIP3      OH2            13.4001538609       18.3329421779       25.8248437907  TIP3      1869            0.0000000000
     24322      2029  TIP3      H1             13.1380289786       18.2710514216       26.7613553890  TIP3      1869            0.0000000000
     24323      2029  TIP3      H2             12.8304025541       19.0617941620       25.5340971980  TIP3      1869            0.0000000000
     24324      2030  TIP3      OH2             7.8417036737       17.4941187484       36.3858425602  TIP3      1870            0.0000000000
     24325      2030  TIP3      H1              7.7393374859       17.8848494960       35.4901339321  TIP3      1870            0.0000000000
     24326      2030  TIP3      H2              6.9040527063       17.3258964122       36.5714452289  TIP3      1870            0.0000000000
     24327      2031  TIP3      OH2             7.0039259623       11.3950442697       24.5918253678  TIP3      1871            0.0000000000
     24328      2031  TIP3      H1              6.9374811781       12.2751955673       24.1496621523  TIP3      1871            0.0000000000
     24329      2031  TIP3      H2              6.0824525002       11.2534670902       24.8322458404  TIP3      1871            0.0000000000
     24330      2032  TIP3      OH2             3.6945768146       14.3074729521       33.9819084193  TIP3      1872            0.0000000000
     24331      2032  TIP3      H1              4.4107357252       14.0079597762       33.3912115448  TIP3      1872            0.0000000000
     24332      2032  TIP3      H2              3.0860598829       13.5377692864       33.9403779126  TIP3      1872            0.0000000000
     24333      2033  TIP3      OH2             3.4763607781       16.9701065723       29.9848923832  TIP3      1873            0.0000000000
     24334      2033  TIP3      H1              4.2806039755       16.3945419197       30.0019491639  TIP3      1873            0.0000000000
     24335      2033  TIP3      H2              3.6147192510       17.5243497939       30.7748111329  TIP3      1873            0.0000000000
     24336      2034  TIP3      OH2            21.1249598461       17.6367121816       36.3259464385  TIP3      1874            0.0000000000
     24337      2034  TIP3      H1             21.2923252693       17.5814467261       37.2868394052  TIP3      1874            0.0000000000
     24338      2034  TIP3      H2             20.1813877907       17.8843083463       36.3944864227  TIP3      1874            0.0000000000
     24339      2035  TIP3      OH2            12.0427506330       17.1337953290       35.1170334423  TIP3      1875            0.0000000000
     24340      2035  TIP3      H1             12.1173111259       17.9174399772       35.7080656604  TIP3      1875            0.0000000000
     24341      2035  TIP3      H2             11.2983722792       16.6483593288       35.5192834836  TIP3      1875            0.0000000000
     24342      2036  TIP3      OH2            12.3134976151       20.9878673833       24.5518887846  TIP3      1876            0.0000000000
     24343      2036  TIP3      H1             12.0503236944       21.3306479107       23.6812944285  TIP3      1876            0.0000000000
     24344      2036  TIP3      H2             12.4199542176       21.8469970874       25.0167930891  TIP3      1876            0.0000000000
     24345      2037  TIP3      OH2             6.3142762101       20.0458606784       26.5911268286  TIP3      1877            0.0000000000
     24346      2037  TIP3      H1              6.7122577799       19.6234420573       27.3874355668  TIP3      1877            0.0000000000
     24347      2037  TIP3      H2              5.6486357809       19.3827181664       26.3610432398  TIP3      1877            0.0000000000
     24348      2038  TIP3      OH2            15.0086068986       20.0202934954       24.4492508618  TIP3      1878            0.0000000000
     24349      2038  TIP3      H1             14.2116849789       20.5850872405       24.5012251131  TIP3      1878            0.0000000000
     24350      2038  TIP3      H2             14.6156773595       19.1847589734       24.7840683078  TIP3      1878            0.0000000000
     24351      2039  TIP3      OH2            18.4882997522        8.8632298910       36.6263252251  TIP3      1879            0.0000000000
     24352      2039  TIP3      H1             17.8701453045        9.1221802321       35.9107802234  TIP3      1879            0.0000000000
     24353      2039  TIP3      H2             18.3474530130        7.9037970000       36.5948688223  TIP3      1879            0.0000000000
     24354      2040  TIP3      OH2             5.7179534447       15.8458993522       34.9796997222  TIP3      1880            0.0000000000
     24355      2040  TIP3      H1              5.8162018731       15.1104601582       35.6336017862  TIP3      1880            0.0000000000
     24356      2040  TIP3      H2              4.9583132499       15.5366565862       34.4470613933  TIP3      1880            0.0000000000
     24357      2041  TIP3      OH2             7.8172213738        3.7739113196       30.6325231535  TIP3      1881            0.0000000000
     24358      2041  TIP3      H1              6.9122363456        4.0770020648       30.8178021406  TIP3      1881            0.0000000000
     24359      2041  TIP3      H2              8.3031565546        4.6009779782       30.5026065364  TIP3      1881            0.0000000000
     24360      2042  TIP3      OH2            12.7198909686        3.0200977266       33.6505961760  TIP3      1882            0.0000000000
     24361      2042  TIP3      H1             13.2059231283        2.9903812848       34.5024764187  TIP3      1882            0.0000000000
     24362      2042  TIP3      H2             11.8638335525        3.4158031962       33.8532064470  TIP3      1882            0.0000000000
     24363      2043  TIP3      OH2            16.1624900987        7.5958416105       36.0883962023  TIP3      1883            0.0000000000
     24364      2043  TIP3      H1             15.3186173679        7.0817342387       36.1088353725  TIP3      1883            0.0000000000
     24365      2043  TIP3      H2             16.1041324332        8.0528558686       35.2257748405  TIP3      1883            0.0000000000
     24366      2044  TIP3      OH2             8.2089816021        9.3147537080       32.3614597653  TIP3      1884            0.0000000000
     24367      2044  TIP3      H1              7.3131783330        9.3058123704       32.7701826066  TIP3      1884            0.0000000000
     24368      2044  TIP3      H2              8.1603879165       10.1250496696       31.7898989591  TIP3      1884            0.0000000000
     24369      2045  TIP3      OH2             8.4394962496        9.0653725537       26.5165335187  TIP3      1885            0.0000000000
     24370      2045  TIP3      H1              7.5357851748        8.7710240409       26.2932132526  TIP3      1885            0.0000000000
     24371      2045  TIP3      H2              8.9191955772        8.9677475748       25.6903169221  TIP3      1885            0.0000000000
     24372      2046  TIP3      OH2            14.3753787073        9.7801377178       25.7407126702  TIP3      1886            0.0000000000
     24373      2046  TIP3      H1             13.9577570709       10.4248440905       25.1321674406  TIP3      1886            0.0000000000
     24374      2046  TIP3      H2             14.4575323007        9.0059990543       25.1638248154  TIP3      1886            0.0000000000
     24375      2047  TIP3      OH2            12.5744610443        9.8131560380       36.8952249699  TIP3      1887            0.0000000000
     24376      2047  TIP3      H1             12.2301080690        8.9724275107       37.2683189732  TIP3      1887            0.0000000000
     24377      2047  TIP3      H2             13.4751053686        9.8425990977       37.2410428178  TIP3      1887            0.0000000000
     24378      2048  TIP3      OH2            15.0790891142        8.8771174457       28.5435143847  TIP3      1888            0.0000000000
     24379      2048  TIP3      H1             14.8040511306        9.5320344018       27.8811711605  TIP3      1888            0.0000000000
     24380      2048  TIP3      H2             15.1284861641        8.0974283136       27.9623872785  TIP3      1888            0.0000000000
     24381      2049  TIP3      OH2             5.6500667453        8.9539014836       33.2808459176  TIP3      1889            0.0000000000
     24382      2049  TIP3      H1              4.9600833866        9.3397273180       33.8772167306  TIP3      1889            0.0000000000
     24383      2049  TIP3      H2              5.3281786945        8.0355891871       33.2487855376  TIP3      1889            0.0000000000
     24384      2050  TIP3      OH2             3.3445444166        5.9605029444       27.3833290888  TIP3      1890            0.0000000000
     24385      2050  TIP3      H1              3.6010170794        6.1323129664       28.3242990878  TIP3      1890            0.0000000000
     24386      2050  TIP3      H2              3.2228642776        6.8562991131       27.0335680305  TIP3      1890            0.0000000000
     24387      2051  TIP3      OH2             3.6147374537        6.9378104736       22.4489966528  TIP3      1891            0.0000000000
     24388      2051  TIP3      H1              4.3602053952        6.3624127140       22.1848757524  TIP3      1891            0.0000000000
     24389      2051  TIP3      H2              4.0466738399        7.7643964568       22.6988076884  TIP3      1891            0.0000000000
     24390      2052  TIP3      OH2            14.0507499349       11.1266171974       32.6293897968  TIP3      1892            0.0000000000
     24391      2052  TIP3      H1             14.2082001649       10.2836946637       32.1492803241  TIP3      1892            0.0000000000
     24392      2052  TIP3      H2             13.4846031230       10.7976588681       33.3435784237  TIP3      1892            0.0000000000
     24393      2053  TIP3      OH2            11.3315246720        7.6151858833       28.0057873330  TIP3      1893            0.0000000000
     24394      2053  TIP3      H1             10.8710711379        6.8988208498       27.5098302717  TIP3      1893            0.0000000000
     24395      2053  TIP3      H2             10.9070572656        7.3890083331       28.8534784504  TIP3      1893            0.0000000000
     24396      2054  TIP3      OH2             5.6303482547        8.2270473331       26.4501888490  TIP3      1894            0.0000000000
     24397      2054  TIP3      H1              4.7770585333        8.5220867395       26.0748892710  TIP3      1894            0.0000000000
     24398      2054  TIP3      H2              5.6793162524        7.3056402894       26.1245608738  TIP3      1894            0.0000000000
     24399      2055  TIP3      OH2             9.3642825049        7.9965775905       23.8766991939  TIP3      1895            0.0000000000
     24400      2055  TIP3      H1             10.3043685489        8.2174240699       24.0760904800  TIP3      1895            0.0000000000
     24401      2055  TIP3      H2              9.0600378203        8.8644991658       23.5953828900  TIP3      1895            0.0000000000
     24402      2056  TIP3      OH2            15.8633547792        5.2261507494       30.6098140297  TIP3      1896            0.0000000000
     24403      2056  TIP3      H1             15.2689758782        5.7346183007       31.1860072306  TIP3      1896            0.0000000000
     24404      2056  TIP3      H2             15.2432949302        4.7547266613       30.0201854714  TIP3      1896            0.0000000000
     24405      2057  TIP3      OH2            18.4361248429       21.3990399896       37.3377558382  TIP3      1897            0.0000000000
     24406      2057  TIP3      H1             18.8646059375       21.5702613817       36.4723418050  TIP3      1897            0.0000000000
     24407      2057  TIP3      H2             19.1747529745       21.5597510779       37.9411542079  TIP3      1897            0.0000000000
     24408      2058  TIP3      OH2             5.9394174371       13.9389275543       36.9934149568  TIP3      1898            0.0000000000
     24409      2058  TIP3      H1              6.6223261029       13.7360614722       37.6646730136  TIP3      1898            0.0000000000
     24410      2058  TIP3      H2              5.1382009461       13.5472307932       37.4064782860  TIP3      1898            0.0000000000
     24411      2059  TIP3      OH2            11.8968209244        9.7972970469       29.4505002766  TIP3      1899            0.0000000000
     24412      2059  TIP3      H1             12.2068464024        9.1588474738       28.7827302053  TIP3      1899            0.0000000000
     24413      2059  TIP3      H2             12.0139730932        9.2354169862       30.2368874889  TIP3      1899            0.0000000000
     24414      2060  TIP3      OH2             6.4368909436        5.7342276462       25.6049036753  TIP3      1900            0.0000000000
     24415      2060  TIP3      H1              6.2459731977        4.8754920681       26.0348409856  TIP3      1900            0.0000000000
     24416      2060  TIP3      H2              7.1360664589        5.4734019144       24.9755981849  TIP3      1900            0.0000000000
     24417      2061  TIP3      OH2            10.2388155571        7.7014502942       31.8824691677  TIP3      1901            0.0000000000
     24418      2061  TIP3      H1              9.5637956565        8.4007596823       32.0358870887  TIP3      1901            0.0000000000
     24419      2061  TIP3      H2             11.0153326791        8.0808078715       32.3261639362  TIP3      1901            0.0000000000
     24420      2062  TIP3      OH2            10.9545446216       14.0519520969       23.7436888542  TIP3      1902            0.0000000000
     24421      2062  TIP3      H1             10.4469904837       13.2669051840       23.9717372245  TIP3      1902            0.0000000000
     24422      2062  TIP3      H2             11.0067365243       14.4408780648       24.6479175385  TIP3      1902            0.0000000000
     24423      2063  TIP3      OH2            18.3963106696       13.0694870608       32.1941862925  TIP3      1903            0.0000000000
     24424      2063  TIP3      H1             18.8700611470       13.6199205419       31.5398216626  TIP3      1903            0.0000000000
     24425      2063  TIP3      H2             17.5821443042       12.8278407420       31.6879459250  TIP3      1903            0.0000000000
     24426      2064  TIP3      OH2            15.1099077318        7.3181869311       21.1976301047  TIP3      1904            0.0000000000
     24427      2064  TIP3      H1             14.4709041962        6.7380164263       21.6200404401  TIP3      1904            0.0000000000
     24428      2064  TIP3      H2             15.5743144101        7.6734372527       21.9843676658  TIP3      1904            0.0000000000
     24429      2065  TIP3      OH2            12.6719605989       14.3611750616       34.8130363435  TIP3      1905            0.0000000000
     24430      2065  TIP3      H1             12.2870655813       13.9388026075       35.5919886720  TIP3      1905            0.0000000000
     24431      2065  TIP3      H2             12.5779637346       15.3025145057       35.0451100116  TIP3      1905            0.0000000000
     24432      2066  TIP3      OH2            16.3163585268        8.5020385462       23.3557601659  TIP3      1906            0.0000000000
     24433      2066  TIP3      H1             16.7792220265        8.5901479165       24.2038993707  TIP3      1906            0.0000000000
     24434      2066  TIP3      H2             15.9573480872        9.4059490801       23.2000136133  TIP3      1906            0.0000000000
     24435      2067  TIP3      OH2             6.4908276643       12.8558796285       28.8320072297  TIP3      1907            0.0000000000
     24436      2067  TIP3      H1              6.6781329140       13.7903569733       28.7692959655  TIP3      1907            0.0000000000
     24437      2067  TIP3      H2              6.5244623106       12.7218172868       29.7990213385  TIP3      1907            0.0000000000
     24438      2068  TIP3      OH2            13.4887541749       15.1851073918       23.3359313075  TIP3      1908            0.0000000000
     24439      2068  TIP3      H1             13.0197652470       16.0351337524       23.4623692715  TIP3      1908            0.0000000000
     24440      2068  TIP3      H2             12.7925818264       14.5381517808       23.5760523017  TIP3      1908            0.0000000000
     24441      2069  TIP3      OH2             3.9204863655       10.3993480505       34.8327813820  TIP3      1909            0.0000000000
     24442      2069  TIP3      H1              4.0358696198       10.6386047346       35.7730211795  TIP3      1909            0.0000000000
     24443      2069  TIP3      H2              2.9862875648       10.6474593352       34.6918585615  TIP3      1909            0.0000000000
     24444      2070  TIP3      OH2            10.5216142422       11.3652873855       36.4158629469  TIP3      1910            0.0000000000
     24445      2070  TIP3      H1              9.8405762027       10.8608493413       35.9113995669  TIP3      1910            0.0000000000
     24446      2070  TIP3      H2             11.2582992356       10.7092555551       36.4361397490  TIP3      1910            0.0000000000
     24447      2071  TIP3      OH2            15.4870925407       16.4009162983       35.0623783620  TIP3      1911            0.0000000000
     24448      2071  TIP3      H1             14.7698542800       16.8548988539       34.6103280395  TIP3      1911            0.0000000000
     24449      2071  TIP3      H2             15.3635623658       16.7339526592       35.9720936272  TIP3      1911            0.0000000000
     24450      2072  TIP3      OH2            20.1577097274        9.2685064856       23.7891231978  TIP3      1912            0.0000000000
     24451      2072  TIP3      H1             20.1324804802        9.0034567484       22.8554359248  TIP3      1912            0.0000000000
     24452      2072  TIP3      H2             20.7834892989       10.0196197832       23.7538977621  TIP3      1912            0.0000000000
     24453      2073  TIP3      OH2            21.1695590504       14.7052076637       35.9697699139  TIP3      1913            0.0000000000
     24454      2073  TIP3      H1             20.4427443087       15.2983833156       36.2382276088  TIP3      1913            0.0000000000
     24455      2073  TIP3      H2             21.6013847669       15.2453052091       35.2787555636  TIP3      1913            0.0000000000
     24456      2074  TIP3      OH2            19.0391414466       17.3390977456       23.1100343086  TIP3      1914            0.0000000000
     24457      2074  TIP3      H1             18.9910326242       16.7109146829       23.8499960796  TIP3      1914            0.0000000000
     24458      2074  TIP3      H2             19.0895753920       16.7458343507       22.3353111670  TIP3      1914            0.0000000000
     24459      2075  TIP3      OH2            16.4563094374       12.5979452795       30.5198352680  TIP3      1915            0.0000000000
     24460      2075  TIP3      H1             15.5040710569       12.5741855644       30.3145000053  TIP3      1915            0.0000000000
     24461      2075  TIP3      H2             16.7352691788       11.7444959783       30.1242829544  TIP3      1915            0.0000000000
     24462      2076  TIP3      OH2             8.8933197177       16.5780248350       26.9419243947  TIP3      1916            0.0000000000
     24463      2076  TIP3      H1              9.0951239501       17.5097562672       26.7828446831  TIP3      1916            0.0000000000
     24464      2076  TIP3      H2              7.9309022701       16.5360127312       26.9094518335  TIP3      1916            0.0000000000
     24465      2077  TIP3      OH2            10.8156424319       14.5711224897       26.3299424345  TIP3      1917            0.0000000000
     24466      2077  TIP3      H1             10.1861193094       15.2120421443       26.7034925479  TIP3      1917            0.0000000000
     24467      2077  TIP3      H2             10.4021317719       13.7208611835       26.5656744786  TIP3      1917            0.0000000000
     24468      2078  TIP3      OH2            10.6613911784       18.7649629131       33.0588613960  TIP3      1918            0.0000000000
     24469      2078  TIP3      H1             11.4020559212       19.3050533752       32.7208340415  TIP3      1918            0.0000000000
     24470      2078  TIP3      H2             11.1025476907       18.2838250877       33.7862849126  TIP3      1918            0.0000000000
     24471      2079  TIP3      OH2             9.3240571809       19.4819349747       26.4109404454  TIP3      1919            0.0000000000
     24472      2079  TIP3      H1              8.5926692912       19.4269728267       27.0519439820  TIP3      1919            0.0000000000
     24473      2079  TIP3      H2              9.9746834960       19.9686636849       26.9597788057  TIP3      1919            0.0000000000
     24474      2080  TIP3      OH2            13.9544903374       14.6073346834       32.4626671589  TIP3      1920            0.0000000000
     24475      2080  TIP3      H1             13.5770318442       14.4375056886       33.3615888125  TIP3      1920            0.0000000000
     24476      2080  TIP3      H2             14.3202428732       13.7318107322       32.2546107000  TIP3      1920            0.0000000000
     24477      2081  TIP3      OH2            16.5559262538       15.3235226106       21.8623091546  TIP3      1921            0.0000000000
     24478      2081  TIP3      H1             16.3199256486       15.3128869344       22.8038413505  TIP3      1921            0.0000000000
     24479      2081  TIP3      H2             15.6908222919       15.3784428997       21.4394405262  TIP3      1921            0.0000000000
     24480      2082  TIP3      OH2            17.2117425279       19.0673064575       34.8041954531  TIP3      1922            0.0000000000
     24481      2082  TIP3      H1             16.3582688163       18.6217736627       34.6194079229  TIP3      1922            0.0000000000
     24482      2082  TIP3      H2             17.2694663757       19.6939441221       34.0629334432  TIP3      1922            0.0000000000
     24483      2083  TIP3      OH2             4.8457437318        6.3136773435       34.1578806148  TIP3      1923            0.0000000000
     24484      2083  TIP3      H1              4.5198307216        6.8926944069       34.8700751317  TIP3      1923            0.0000000000
     24485      2083  TIP3      H2              4.7515112650        5.4391597277       34.5809296164  TIP3      1923            0.0000000000
     24486      2084  TIP3      OH2            17.6148573586       14.3351632071       24.2857844644  TIP3      1924            0.0000000000
     24487      2084  TIP3      H1             17.4329026798       13.4278351265       24.6210565037  TIP3      1924            0.0000000000
     24488      2084  TIP3      H2             18.5033173223       14.1903851339       23.9165967680  TIP3      1924            0.0000000000
     24489      2085  TIP3      OH2             4.8295190690       17.5592701952       32.5175123643  TIP3      1925            0.0000000000
     24490      2085  TIP3      H1              4.9329826727       16.6062758846       32.2968138636  TIP3      1925            0.0000000000
     24491      2085  TIP3      H2              5.6452202316       17.6426603497       33.0469854667  TIP3      1925            0.0000000000
     24492      2086  TIP3      OH2             9.2663729842       16.3080604984       22.3630170802  TIP3      1926            0.0000000000
     24493      2086  TIP3      H1              9.9136178332       15.7614060423       22.8361380763  TIP3      1926            0.0000000000
     24494      2086  TIP3      H2              9.6364649521       17.1991133424       22.4513070570  TIP3      1926            0.0000000000
     24495      2087  TIP3      OH2             6.5969858338       13.5709864673       23.1703891255  TIP3      1927            0.0000000000
     24496      2087  TIP3      H1              5.6728706751       13.7855765593       23.3849960237  TIP3      1927            0.0000000000
     24497      2087  TIP3      H2              6.8543778218       14.4142470830       22.7603212872  TIP3      1927            0.0000000000
     24498      2088  TIP3      OH2            13.5381042819        6.2757708586       33.6835228771  TIP3      1928            0.0000000000
     24499      2088  TIP3      H1             14.3842393450        6.7551182083       33.5307290775  TIP3      1928            0.0000000000
     24500      2088  TIP3      H2             13.8429307712        5.3836346603       33.8730749634  TIP3      1928            0.0000000000
     24501      2089  TIP3      OH2            14.7866063797        5.3978173694       24.5280152970  TIP3      1929            0.0000000000
     24502      2089  TIP3      H1             14.2562153767        6.0026482655       23.9955312346  TIP3      1929            0.0000000000
     24503      2089  TIP3      H2             15.2121262792        6.0173038739       25.1449882430  TIP3      1929            0.0000000000
     24504      2090  TIP3      OH2            12.4982054101       17.5974265554       22.5970366378  TIP3      1930            0.0000000000
     24505      2090  TIP3      H1             11.6945940822       17.5473694971       22.0735598059  TIP3      1930            0.0000000000
     24506      2090  TIP3      H2             13.1058997333       17.0669101903       22.0352525892  TIP3      1930            0.0000000000
     24507      2091  TIP3      OH2            12.4498750747        7.2111703300       25.6949648790  TIP3      1931            0.0000000000
     24508      2091  TIP3      H1             12.5759463086        8.0174946388       25.1510175937  TIP3      1931            0.0000000000
     24509      2091  TIP3      H2             12.0922479480        7.5728153546       26.5354778778  TIP3      1931            0.0000000000
     24510      2092  TIP3      OH2            12.4926505937        8.7532971845       34.2397285398  TIP3      1932            0.0000000000
     24511      2092  TIP3      H1             12.4760533698        9.0980464180       35.1523082626  TIP3      1932            0.0000000000
     24512      2092  TIP3      H2             12.7813089800        7.8159956497       34.3190931642  TIP3      1932            0.0000000000
     24513      2093  TIP3      OH2            12.7832992997        4.3675238979       25.9447287215  TIP3      1933            0.0000000000
     24514      2093  TIP3      H1             12.2286755147        5.0590596947       26.3393099411  TIP3      1933            0.0000000000
     24515      2093  TIP3      H2             13.5550883388        4.9246424260       25.6791920050  TIP3      1933            0.0000000000
     24516      2094  TIP3      OH2            10.0060396044       18.9072126259       23.1337068451  TIP3      1934            0.0000000000
     24517      2094  TIP3      H1             10.4413397916       19.5526238237       22.5630222683  TIP3      1934            0.0000000000
     24518      2094  TIP3      H2             10.6490201755       18.8180390661       23.8599223678  TIP3      1934            0.0000000000
     24519      2095  TIP3      OH2             8.1883872076        5.4418354609       23.3839263113  TIP3      1935            0.0000000000
     24520      2095  TIP3      H1              8.4802922933        6.3776389628       23.4656337732  TIP3      1935            0.0000000000
     24521      2095  TIP3      H2              9.0621754017        5.0283235263       23.5471113197  TIP3      1935            0.0000000000
     24522      2096  TIP3      OH2            18.3447331488        6.3565043806       34.9633953376  TIP3      1936            0.0000000000
     24523      2096  TIP3      H1             17.5383137823        6.4034856636       35.5087624655  TIP3      1936            0.0000000000
     24524      2096  TIP3      H2             17.9616321228        6.6291555617       34.0918058486  TIP3      1936            0.0000000000
     24525      2097  TIP3      OH2            17.1929399735       10.4160699699       29.0805448464  TIP3      1937            0.0000000000
     24526      2097  TIP3      H1             16.4639131149        9.7587799650       29.0779674684  TIP3      1937            0.0000000000
     24527      2097  TIP3      H2             17.8524460727        9.9484843876       29.6490440402  TIP3      1937            0.0000000000
     24528      2098  TIP3      OH2             6.5276413143       16.2412430071       22.1777311492  TIP3      1938            0.0000000000
     24529      2098  TIP3      H1              7.5034673090       16.2737151517       22.2878373790  TIP3      1938            0.0000000000
     24530      2098  TIP3      H2              6.4357343574       16.2042873279       21.2113121099  TIP3      1938            0.0000000000
     24531      2099  TIP3      OH2             4.8041276560        8.5847648106       20.4885446903  TIP3      1939            0.0000000000
     24532      2099  TIP3      H1              5.3303217152        8.8123220222       21.2546282826  TIP3      1939            0.0000000000
     24533      2099  TIP3      H2              4.7608981499        7.6196850753       20.5577324420  TIP3      1939            0.0000000000
     24534      2100  TIP3      OH2            18.2229067583       19.8587587892       30.9709368240  TIP3      1940            0.0000000000
     24535      2100  TIP3      H1             17.9211093303       19.9696741192       30.0530281642  TIP3      1940            0.0000000000
     24536      2100  TIP3      H2             19.1339641240       19.5207262742       30.8147771771  TIP3      1940            0.0000000000
     24537      2101  TIP3      OH2             5.1421929200        3.5080801079       29.2732494685  TIP3      1941            0.0000000000
     24538      2101  TIP3      H1              5.3966236067        3.1478309312       28.4178150608  TIP3      1941            0.0000000000
     24539      2101  TIP3      H2              5.2217329799        2.6998276582       29.8324183850  TIP3      1941            0.0000000000
     24540      2102  TIP3      OH2             4.3109937092       17.7738395097       26.0741845730  TIP3      1942            0.0000000000
     24541      2102  TIP3      H1              3.9791242224       18.3266691478       26.8087120939  TIP3      1942            0.0000000000
     24542      2102  TIP3      H2              4.0805127892       18.2894265306       25.2663155803  TIP3      1942            0.0000000000
     24543      2103  TIP3      OH2             4.1126354637       19.9208433548       36.4138507061  TIP3      1943            0.0000000000
     24544      2103  TIP3      H1              4.5802991783       20.0623917311       37.2445498022  TIP3      1943            0.0000000000
     24545      2103  TIP3      H2              3.5031635976       19.2144157885       36.7373747320  TIP3      1943            0.0000000000
     24546      2104  TIP3      OH2             9.0743992925       18.9624808684       38.8336181332  TIP3      1944            0.0000000000
     24547      2104  TIP3      H1              9.9312617383       18.5343714945       38.6679600064  TIP3      1944            0.0000000000
     24548      2104  TIP3      H2              8.5225330989       18.4887471130       38.1849422376  TIP3      1944            0.0000000000
     24549      2105  TIP3      OH2            15.0882505846       17.6789952345       37.4854236564  TIP3      1945            0.0000000000
     24550      2105  TIP3      H1             14.7501176498       16.8713869302       37.9483540972  TIP3      1945            0.0000000000
     24551      2105  TIP3      H2             15.9957606824       17.7295131499       37.8520292297  TIP3      1945            0.0000000000
     24552      2106  TIP3      OH2             3.4197327275       14.0336829704       38.2985337428  TIP3      1946            0.0000000000
     24553      2106  TIP3      H1              2.7935612188       13.2987546631       38.2336017994  TIP3      1946            0.0000000000
     24554      2106  TIP3      H2              3.0211626632       14.6852618301       37.6752783633  TIP3      1946            0.0000000000
     24555      2107  TIP3      OH2            10.4525725711       13.8719774670       37.2539743704  TIP3      1947            0.0000000000
     24556      2107  TIP3      H1             10.2126994166       14.5277656006       36.5567596479  TIP3      1947            0.0000000000
     24557      2107  TIP3      H2             10.4375241341       13.0035189905       36.7739130199  TIP3      1947            0.0000000000
     24558      2108  TIP3      OH2            13.1792144187       15.7877613905       20.5059131145  TIP3      1948            0.0000000000
     24559      2108  TIP3      H1             13.0267730612       14.9934824902       21.0474247373  TIP3      1948            0.0000000000
     24560      2108  TIP3      H2             12.6507198622       15.6287253826       19.6906322886  TIP3      1948            0.0000000000
     24561      2109  TIP3      OH2            16.0666898450       13.6627807645       35.1620483778  TIP3      1949            0.0000000000
     24562      2109  TIP3      H1             16.8154438138       14.2873372003       35.0345333413  TIP3      1949            0.0000000000
     24563      2109  TIP3      H2             15.3441023200       14.3208927476       35.1131670490  TIP3      1949            0.0000000000
     24564      2110  TIP3      OH2             5.0341777548       11.0089459206       37.3216472184  TIP3      1950            0.0000000000
     24565      2110  TIP3      H1              4.8114619857       10.1068006238       37.6023718952  TIP3      1950            0.0000000000
     24566      2110  TIP3      H2              5.1078491951       11.4408050585       38.1995456171  TIP3      1950            0.0000000000
     24567      2111  TIP3      OH2             8.5606455337       10.5737686208       34.7982784195  TIP3      1951            0.0000000000
     24568      2111  TIP3      H1              7.8389649090       11.1853408319       34.5483041785  TIP3      1951            0.0000000000
     24569      2111  TIP3      H2              9.1295416375       10.6419915221       34.0088431297  TIP3      1951            0.0000000000
     24570      2112  TIP3      OH2            14.0294299066       12.6590476384       38.3918942947  TIP3      1952            0.0000000000
     24571      2112  TIP3      H1             14.7857755418       12.1669190777       38.0123511192  TIP3      1952            0.0000000000
     24572      2112  TIP3      H2             13.5846931942       11.9892769357       38.9386167760  TIP3      1952            0.0000000000
     24573      2113  TIP3      OH2             9.4179024039        7.7235707525       35.5578298127  TIP3      1953            0.0000000000
     24574      2113  TIP3      H1              9.4832756361        7.0076134041       34.9008663227  TIP3      1953            0.0000000000
     24575      2113  TIP3      H2              8.9280568989        8.3950844871       35.0425140677  TIP3      1953            0.0000000000
     24576      2114  TIP3      OH2             9.3978781526        5.6546070476       33.3359054062  TIP3      1954            0.0000000000
     24577      2114  TIP3      H1              9.8411104458        6.2192286411       32.6541879719  TIP3      1954            0.0000000000
     24578      2114  TIP3      H2              8.4614721607        5.7063311569       33.0158934249  TIP3      1954            0.0000000000
     24579      2115  TIP3      OH2            10.7858924803       11.5977459968       33.2623901179  TIP3      1955            0.0000000000
     24580      2115  TIP3      H1             11.5440459981       12.1894528723       33.1949239856  TIP3      1955            0.0000000000
     24581      2115  TIP3      H2             10.1299584740       12.1541971725       32.7908242977  TIP3      1955            0.0000000000
     24582      2116  TIP3      OH2            15.2280063108        9.0592532054       38.6431750703  TIP3      1956            0.0000000000
     24583      2116  TIP3      H1             15.4130055722        8.4100538689       37.9359742593  TIP3      1956            0.0000000000
     24584      2116  TIP3      H2             16.0641652260        9.5341201939       38.6298812229  TIP3      1956            0.0000000000
     24585      2117  TIP3      OH2            16.6600914174       11.9391470040       37.1416592472  TIP3      1957            0.0000000000
     24586      2117  TIP3      H1             16.4016199843       12.4940057067       36.3668324811  TIP3      1957            0.0000000000
     24587      2117  TIP3      H2             17.5781700862       11.7314053628       36.9215613805  TIP3      1957            0.0000000000
     24588      2118  TIP3      OH2             7.4679491825        8.1561546896       37.9389148008  TIP3      1958            0.0000000000
     24589      2118  TIP3      H1              6.6847891309        7.5581694636       37.8317750574  TIP3      1958            0.0000000000
     24590      2118  TIP3      H2              7.8387028859        8.1183989662       37.0405555463  TIP3      1958            0.0000000000
     24591      2119  TIP3      OH2             9.8817917326        3.1003325164       33.6520557223  TIP3      1959            0.0000000000
     24592      2119  TIP3      H1              9.7413105488        4.0717190345       33.4996636052  TIP3      1959            0.0000000000
     24593      2119  TIP3      H2              9.8229246164        2.7933126885       32.7307586511  TIP3      1959            0.0000000000
     24594      2120  TIP3      OH2            11.3791307490        7.4121266080       37.5121174997  TIP3      1960            0.0000000000
     24595      2120  TIP3      H1             10.7818140637        7.3597155989       38.2794539577  TIP3      1960            0.0000000000
     24596      2120  TIP3      H2             10.7271521666        7.4336727508       36.7773702568  TIP3      1960            0.0000000000
     24597      2121  TIP3      OH2            13.8154976992        6.5807192568       36.5487897750  TIP3      1961            0.0000000000
     24598      2121  TIP3      H1             12.8715599007        6.6441293745       36.7836004829  TIP3      1961            0.0000000000
     24599      2121  TIP3      H2             14.1401839012        5.9973853098       37.2753438775  TIP3      1961            0.0000000000
     24600      2122  TIP3      OH2            14.9723532709        5.1399428883       38.4072016576  TIP3      1962            0.0000000000
     24601      2122  TIP3      H1             15.4598824585        4.2893231191       38.4960303397  TIP3      1962            0.0000000000
     24602      2122  TIP3      H2             15.3003635298        5.6676406825       39.1746720995  TIP3      1962            0.0000000000
     24603      2123  TIP3      OH2             5.4355287095        6.3857550307       37.7801093522  TIP3      1963            0.0000000000
     24604      2123  TIP3      H1              5.1352389590        5.6158355913       37.2615065138  TIP3      1963            0.0000000000
     24605      2123  TIP3      H2              5.0923246112        6.1907245268       38.6888138793  TIP3      1963            0.0000000000
     24606      2124  TIP3      OH2            10.3309061334        3.1678871313       36.4883786957  TIP3      1964            0.0000000000
     24607      2124  TIP3      H1             11.2584837460        2.8783330624       36.4193965186  TIP3      1964            0.0000000000
     24608      2124  TIP3      H2             10.2086179188        3.6720923766       35.6623529293  TIP3      1964            0.0000000000
     24609      2125  TIP3      OH2            10.3491142213        4.0781771636       39.0885024546  TIP3      1965            0.0000000000
     24610      2125  TIP3      H1             10.1983490197        3.6024623119       38.2501949146  TIP3      1965            0.0000000000
     24611      2125  TIP3      H2             10.0529367573        4.9854368945       38.8508900820  TIP3      1965            0.0000000000
     24612      2126  TIP3      OH2             3.2218123637       21.1190266091       26.3506287988  TIP3      1966            0.0000000000
     24613      2126  TIP3      H1              2.3960355797       20.6801945408       26.0464501930  TIP3      1966            0.0000000000
     24614      2126  TIP3      H2              3.4333454443       20.5438922740       27.1174086150  TIP3      1966            0.0000000000
     24615      2127  TIP3      OH2             3.6365606913       19.1487527661       28.2806414062  TIP3      1967            0.0000000000
     24616      2127  TIP3      H1              3.3743284810       18.3469911055       28.7879413315  TIP3      1967            0.0000000000
     24617      2127  TIP3      H2              4.2371919145       19.5632569210       28.9338101828  TIP3      1967            0.0000000000
     24618      2128  TIP3      OH2            20.8922013461       19.8219358500       30.5609317196  TIP3      1968            0.0000000000
     24619      2128  TIP3      H1             21.4341855576       19.6681499366       31.3665719125  TIP3      1968            0.0000000000
     24620      2128  TIP3      H2             21.5976096042       19.9582176105       29.9027614523  TIP3      1968            0.0000000000
     24621      2129  TIP3      OH2            19.8654287611       19.5885457362       34.2365213371  TIP3      1969            0.0000000000
     24622      2129  TIP3      H1             20.2122844443       19.1793226085       33.4173863946  TIP3      1969            0.0000000000
     24623      2129  TIP3      H2             20.3996344122       19.0773748083       34.8806940234  TIP3      1969            0.0000000000
     24624      2130  TIP3      OH2            19.4643766405       15.3389778752       38.7357531968  TIP3      1970            0.0000000000
     24625      2130  TIP3      H1             18.6184423600       15.3882600646       39.2310578308  TIP3      1970            0.0000000000
     24626      2130  TIP3      H2             19.7896223732       16.2530196418       38.8835804127  TIP3      1970            0.0000000000
     24627      2131  TIP3      OH2            20.3864095713       13.6191322301       23.5283716059  TIP3      1971            0.0000000000
     24628      2131  TIP3      H1             21.1049183798       14.2427464667       23.7690077822  TIP3      1971            0.0000000000
     24629      2131  TIP3      H2             20.3618593005       13.0960266383       24.3529389872  TIP3      1971            0.0000000000
     24630      2132  TIP3      OH2            20.6380268466       11.7476643017       25.5576064901  TIP3      1972            0.0000000000
     24631      2132  TIP3      H1             19.8826236198       11.4249310825       26.1008184824  TIP3      1972            0.0000000000
     24632      2132  TIP3      H2             20.9483434209       12.5215215541       26.0899344683  TIP3      1972            0.0000000000
     24633      2133  TIP3      OH2            20.7582567777       14.5739676173       31.1873856240  TIP3      1973            0.0000000000
     24634      2133  TIP3      H1             20.9303710412       14.0413136484       30.3872398742  TIP3      1973            0.0000000000
     24635      2133  TIP3      H2             21.1253136209       15.4449084781       30.9301109810  TIP3      1973            0.0000000000
     24636      2134  TIP3      OH2            19.3785433302       17.2294397938       33.1442703937  TIP3      1974            0.0000000000
     24637      2134  TIP3      H1             18.9247887768       17.8292570055       33.7637219040  TIP3      1974            0.0000000000
     24638      2134  TIP3      H2             18.7928080077       17.2156346373       32.3449433898  TIP3      1974            0.0000000000
     24639      2135  TIP3      OH2            21.3794521611       11.3662127327       22.2974582812  TIP3      1975            0.0000000000
     24640      2135  TIP3      H1             20.5001342101       11.0827268016       21.9942002353  TIP3      1975            0.0000000000
     24641      2135  TIP3      H2             21.1513400511       12.1899260471       22.7815677791  TIP3      1975            0.0000000000
     24642      2136  TIP3      OH2            19.3675723146        9.5655767271       20.9027563097  TIP3      1976            0.0000000000
     24643      2136  TIP3      H1             19.8286145895        8.9728124631       20.2737627367  TIP3      1976            0.0000000000
     24644      2136  TIP3      H2             18.6391233653        8.9984013375       21.1914920465  TIP3      1976            0.0000000000
     24645      2137  TIP3      OH2            18.5029061758       10.5243604052       26.7911334870  TIP3      1977            0.0000000000
     24646      2137  TIP3      H1             18.4725728162        9.5669219819       26.6270539904  TIP3      1977            0.0000000000
     24647      2137  TIP3      H2             18.2268647788       10.5688274935       27.7338974523  TIP3      1977            0.0000000000
     24648      2138  TIP3      OH2             3.2278658592       12.2887249456       30.8071625053  TIP3      1978            0.0000000000
     24649      2138  TIP3      H1              3.2888613069       12.1436262017       29.8500640970  TIP3      1978            0.0000000000
     24650      2138  TIP3      H2              4.1816431558       12.2180215647       31.0342063724  TIP3      1978            0.0000000000
     24651      2139  TIP3      OH2            19.6871583587       12.2164727951       36.7110213361  TIP3      1979            0.0000000000
     24652      2139  TIP3      H1             20.1153930586       11.3353200715       36.8840020028  TIP3      1979            0.0000000000
     24653      2139  TIP3      H2             20.4121156275       12.8608458321       36.8186534837  TIP3      1979            0.0000000000
     24654      2140  TIP3      OH2            20.8210867256        9.8630857605       36.6261161861  TIP3      1980            0.0000000000
     24655      2140  TIP3      H1             19.9618128601        9.4963667605       36.2880001572  TIP3      1980            0.0000000000
     24656      2140  TIP3      H2             21.2420938082        9.0225965426       36.9222631977  TIP3      1980            0.0000000000
     24657      2141  TIP3      OH2            18.2769700776        7.8209919413       25.3710921879  TIP3      1981            0.0000000000
     24658      2141  TIP3      H1             18.5587336888        6.8830524935       25.3098791440  TIP3      1981            0.0000000000
     24659      2141  TIP3      H2             18.9272949041        8.2576980404       24.7860216828  TIP3      1981            0.0000000000
     24660      2142  TIP3      OH2            18.8823483390        9.0398596637       30.6333659367  TIP3      1982            0.0000000000
     24661      2142  TIP3      H1             19.8373444145        8.7838923718       30.6083269580  TIP3      1982            0.0000000000
     24662      2142  TIP3      H2             18.5168669991        8.2641709291       31.0995555368  TIP3      1982            0.0000000000
     24663      2143  TIP3      OH2            19.3339222012        9.2000909978       33.7268064816  TIP3      1983            0.0000000000
     24664      2143  TIP3      H1             18.3650959278        9.3429801477       33.8075769393  TIP3      1983            0.0000000000
     24665      2143  TIP3      H2             19.5623531437        9.9608503225       33.1473094981  TIP3      1983            0.0000000000
     24666      2144  TIP3      OH2             3.5937391023        8.0325306291       36.9997853256  TIP3      1984            0.0000000000
     24667      2144  TIP3      H1              4.3193233257        7.5816825095       37.4986259248  TIP3      1984            0.0000000000
     24668      2144  TIP3      H2              3.0653628502        7.2660986522       36.7180085196  TIP3      1984            0.0000000000
     24669      2145  TIP3      OH2            20.9550215467        3.5031727513       38.3233552974  TIP3      1985            0.0000000000
     24670      2145  TIP3      H1             21.9252460442        3.3366953513       38.3327784537  TIP3      1985            0.0000000000
     24671      2145  TIP3      H2             20.9567269416        4.2571137672       37.6977829465  TIP3      1985            0.0000000000
     24672      2146  TIP3      OH2            18.7552626324        5.1304847511       25.0015252595  TIP3      1986            0.0000000000
     24673      2146  TIP3      H1             19.0654325104        4.8411736764       25.8928005959  TIP3      1986            0.0000000000
     24674      2146  TIP3      H2             18.2157950344        4.3598388501       24.6932763762  TIP3      1986            0.0000000000
     24675      2147  TIP3      OH2             4.4650507182        6.1344410314       29.9072776913  TIP3      1987            0.0000000000
     24676      2147  TIP3      H1              4.7799309153        5.2220480334       29.7282956579  TIP3      1987            0.0000000000
     24677      2147  TIP3      H2              5.3027420572        6.6086399487       30.1095360535  TIP3      1987            0.0000000000
     24678      2148  TIP3      OH2             2.8495940117        8.7367483146       31.1002059977  TIP3      1988            0.0000000000
     24679      2148  TIP3      H1              3.2742771727        8.4065760229       30.2919362013  TIP3      1988            0.0000000000
     24680      2148  TIP3      H2              3.2248183803        9.6289564973       31.1672287536  TIP3      1988            0.0000000000
     24681      2149  TIP3      OH2            20.3939420433        5.5930349036       36.7081438007  TIP3      1989            0.0000000000
     24682      2149  TIP3      H1             19.5755173004        5.9958227538       37.0515320339  TIP3      1989            0.0000000000
     24683      2149  TIP3      H2             20.0408630985        5.0691682137       35.9573350538  TIP3      1989            0.0000000000
     24684      2150  TIP3      OH2             2.2684715251        5.5480078945       24.4055027537  TIP3      1990            0.0000000000
     24685      2150  TIP3      H1              1.3175138717        5.7172908649       24.5344182196  TIP3      1990            0.0000000000
     24686      2150  TIP3      H2              2.5040372999        6.1881777405       23.7126824106  TIP3      1990            0.0000000000
     24687      2151  TIP3      OH2            18.3918407244       19.8085789150       27.1828629082  TIP3      1991            0.0000000000
     24688      2151  TIP3      H1             19.3009527850       19.6906158267       26.8727537190  TIP3      1991            0.0000000000
     24689      2151  TIP3      H2             18.4219054482       20.7309669764       27.5013286889  TIP3      1991            0.0000000000
     24690      2152  TIP3      OH2             3.0797811184        3.6397388981       32.9348173594  TIP3      1992            0.0000000000
     24691      2152  TIP3      H1              2.4875646098        3.5813967190       33.7099945563  TIP3      1992            0.0000000000
     24692      2152  TIP3      H2              2.7031706737        4.3953186006       32.4419631016  TIP3      1992            0.0000000000
     24693      2153  TIP3      OH2             5.0974995504       16.9910998678       37.4306522897  TIP3      1993            0.0000000000
     24694      2153  TIP3      H1              4.7692010986       16.5618099104       36.6183479638  TIP3      1993            0.0000000000
     24695      2153  TIP3      H2              5.5758488002       16.2692718581       37.8738052458  TIP3      1993            0.0000000000
     24696      2154  TIP3      OH2             7.9186882609       18.5754217697       33.7408058877  TIP3      1994            0.0000000000
     24697      2154  TIP3      H1              8.2690387855       19.3756197060       33.3181107912  TIP3      1994            0.0000000000
     24698      2154  TIP3      H2              8.7210361600       18.0228238352       33.6845821764  TIP3      1994            0.0000000000
     24699      2155  TIP3      OH2            12.3114363497       19.5081541487       36.3493246660  TIP3      1995            0.0000000000
     24700      2155  TIP3      H1             12.5889683861       19.2336718304       37.2531892557  TIP3      1995            0.0000000000
     24701      2155  TIP3      H2             13.1641120415       19.8480538792       36.0114510005  TIP3      1995            0.0000000000
     24702      2156  TIP3      OH2            14.3250312269       21.4264468715       35.6107970072  TIP3      1996            0.0000000000
     24703      2156  TIP3      H1             15.1835552534       21.2735795311       35.1928214545  TIP3      1996            0.0000000000
     24704      2156  TIP3      H2             14.5844425715       21.5968919824       36.5438211305  TIP3      1996            0.0000000000
     24705      2157  TIP3      OH2            19.6057539693        3.2115063979       35.1206906910  TIP3      1997            0.0000000000
     24706      2157  TIP3      H1             19.0114585638        3.7566160073       34.5777428430  TIP3      1997            0.0000000000
     24707      2157  TIP3      H2             19.8071801595        2.4694753097       34.5150660954  TIP3      1997            0.0000000000
     24708      2158  TIP3      OH2             5.4181322675       21.5848626509       33.4622877954  TIP3      1998            0.0000000000
     24709      2158  TIP3      H1              4.8228219775       22.2561172217       33.0925701725  TIP3      1998            0.0000000000
     24710      2158  TIP3      H2              5.3214451033       21.7646384592       34.4086474187  TIP3      1998            0.0000000000
     24711      2159  TIP3      OH2             8.2774596091       21.0782393068       32.1722538131  TIP3      1999            0.0000000000
     24712      2159  TIP3      H1              7.4290981129       20.9761651565       32.6454178705  TIP3      1999            0.0000000000
     24713      2159  TIP3      H2              8.0248870611       21.6087576252       31.4009055729  TIP3      1999            0.0000000000
     24714      2160  TIP3      OH2            12.6219800556       20.3656214511       31.6707081430  TIP3      2000            0.0000000000
     24715      2160  TIP3      H1             12.0508690932       20.6723902806       30.9508125973  TIP3      2000            0.0000000000
     24716      2160  TIP3      H2             12.6305321459       21.1742791828       32.2258272632  TIP3      2000            0.0000000000
     24717      2161  TIP3      OH2            14.9760488879       19.2182154297       33.2003630333  TIP3      2001            0.0000000000
     24718      2161  TIP3      H1             14.2669164198       19.5773270408       32.6349633371  TIP3      2001            0.0000000000
     24719      2161  TIP3      H2             15.6778467631       19.8821300426       33.0079951641  TIP3      2001            0.0000000000
     24720      2162  TIP3      OH2            16.8911677802       21.1097823234       32.8522688634  TIP3      2002            0.0000000000
     24721      2162  TIP3      H1             16.7414669247       22.0475201535       32.6694679174  TIP3      2002            0.0000000000
     24722      2162  TIP3      H2             17.2906851873       20.7581158531       32.0126243931  TIP3      2002            0.0000000000
     24723      2163  TIP3      OH2             5.2728014755       19.7541347298       30.4570291326  TIP3      2003            0.0000000000
     24724      2163  TIP3      H1              5.1214346168       19.0656714720       31.1343394446  TIP3      2003            0.0000000000
     24725      2163  TIP3      H2              6.1412253401       19.4854039265       30.1150668864  TIP3      2003            0.0000000000
     24726      2164  TIP3      OH2             7.6837968473       19.1172544321       28.6565873629  TIP3      2004            0.0000000000
     24727      2164  TIP3      H1              7.1508084791       18.3031355941       28.8549069201  TIP3      2004            0.0000000000
     24728      2164  TIP3      H2              8.2582250398       19.1349438212       29.4626500402  TIP3      2004            0.0000000000
     24729      2165  TIP3      OH2             9.6497748810       18.8797306385       30.4676739695  TIP3      2005            0.0000000000
     24730      2165  TIP3      H1              9.9784512196       17.9802734902       30.2961570735  TIP3      2005            0.0000000000
     24731      2165  TIP3      H2              9.7947170262       18.9348698116       31.4382641086  TIP3      2005            0.0000000000
     24732      2166  TIP3      OH2            13.3946739966        4.0587649856       28.8707262659  TIP3      2006            0.0000000000
     24733      2166  TIP3      H1             12.5641970969        4.5852704765       28.9043414039  TIP3      2006            0.0000000000
     24734      2166  TIP3      H2             13.2063326339        3.5294277867       28.0788029034  TIP3      2006            0.0000000000
     24735      2167  TIP3      OH2            18.5154036365        3.2141872836       29.2946778988  TIP3      2007            0.0000000000
     24736      2167  TIP3      H1             19.0650030577        3.6204700548       28.5937417467  TIP3      2007            0.0000000000
     24737      2167  TIP3      H2             17.6365443556        3.1935043387       28.8598000215  TIP3      2007            0.0000000000
     24738      2168  TIP3      OH2            20.0214231376        4.2213973811       27.1974826487  TIP3      2008            0.0000000000
     24739      2168  TIP3      H1             20.8154087943        3.7633196839       26.8638338140  TIP3      2008            0.0000000000
     24740      2168  TIP3      H2             20.4672509752        5.0034860562       27.6210800190  TIP3      2008            0.0000000000
     24741      2169  TIP3      OH2             6.3401984533        3.1233218487       26.4637558052  TIP3      2009            0.0000000000
     24742      2169  TIP3      H1              6.4621676119        2.2257541697       26.0758107754  TIP3      2009            0.0000000000
     24743      2169  TIP3      H2              7.0988432089        3.1245773882       27.0795317737  TIP3      2009            0.0000000000
     24744      2170  TIP3      OH2             4.0916756168        3.3633911600       22.8893474843  TIP3      2010            0.0000000000
     24745      2170  TIP3      H1              4.7359104926        3.9805847900       22.5196240607  TIP3      2010            0.0000000000
     24746      2170  TIP3      H2              3.2584652382        3.7559414713       22.5536545860  TIP3      2010            0.0000000000
     24747      2171  TIP3      OH2            10.1096058107        2.3931504270       26.7708003694  TIP3      2011            0.0000000000
     24748      2171  TIP3      H1             10.8995184490        2.7560235490       26.3549097357  TIP3      2011            0.0000000000
     24749      2171  TIP3      H2              9.9199896259        3.1291903191       27.3973460744  TIP3      2011            0.0000000000
     24750      2172  TIP3      OH2            15.9588419847        2.9598619338       27.9784821017  TIP3      2012            0.0000000000
     24751      2172  TIP3      H1             15.4146097315        3.7380147522       27.7827946753  TIP3      2012            0.0000000000
     24752      2172  TIP3      H2             15.3202800131        2.4105127770       28.4758877161  TIP3      2012            0.0000000000
     24753      2173  TIP3      OH2            17.3512709138        3.0031487864       24.0060946133  TIP3      2013            0.0000000000
     24754      2173  TIP3      H1             16.7187464971        3.3973248070       23.3758366020  TIP3      2013            0.0000000000
     24755      2173  TIP3      H2             16.7726638390        2.3288935928       24.4422127695  TIP3      2013            0.0000000000
     24756      2174  TIP3      OH2             4.0241126148       18.9742580919       23.6593376256  TIP3      2014            0.0000000000
     24757      2174  TIP3      H1              3.2878049802       19.0401156116       23.0134856357  TIP3      2014            0.0000000000
     24758      2174  TIP3      H2              4.5786714428       19.6837140142       23.3176658906  TIP3      2014            0.0000000000
     24759      2175  TIP3      OH2             5.6396515737        5.5237879169       21.1703020685  TIP3      2015            0.0000000000
     24760      2175  TIP3      H1              5.8066954031        4.9536670035       20.4056751463  TIP3      2015            0.0000000000
     24761      2175  TIP3      H2              6.4196115529        5.2908992943       21.7071818949  TIP3      2015            0.0000000000
     24762      2176  TIP3      OH2            11.1496004422        5.2665418026       23.5317306923  TIP3      2016            0.0000000000
     24763      2176  TIP3      H1             11.9110434657        4.9663130487       24.0586993833  TIP3      2016            0.0000000000
     24764      2176  TIP3      H2             11.2534064099        6.2284704306       23.6370713570  TIP3      2016            0.0000000000
     24765      2177  TIP3      OH2            19.9960276310       19.5112568784       24.6050159595  TIP3      2017            0.0000000000
     24766      2177  TIP3      H1             20.3276881240       18.8740757618       23.9445165234  TIP3      2017            0.0000000000
     24767      2177  TIP3      H2             19.8622238097       20.3254116312       24.0494396104  TIP3      2017            0.0000000000
     24768      2178  TIP3      OH2             5.2093350217        3.9838060338       36.1168611702  TIP3      2018            0.0000000000
     24769      2178  TIP3      H1              4.8225864472        3.1509027599       36.4541092672  TIP3      2018            0.0000000000
     24770      2178  TIP3      H2              5.9787471644        4.0473699596       36.6996535684  TIP3      2018            0.0000000000
     24771      2179  TIP3      OH2             7.5287781346        3.7490556987       38.2756787211  TIP3      2019            0.0000000000
     24772      2179  TIP3      H1              8.2210423936        3.0794616648       38.2751771071  TIP3      2019            0.0000000000
     24773      2179  TIP3      H2              6.7227914535        3.2105845552       38.4421823300  TIP3      2019            0.0000000000
     24774      2180  TIP3      OH2            15.6945229567        2.5430240554       38.5682742420  TIP3      2020            0.0000000000
     24775      2180  TIP3      H1             15.7795944646        2.1195803510       39.4516316863  TIP3      2020            0.0000000000
     24776      2180  TIP3      H2             16.5850847386        2.3889853011       38.1942940328  TIP3      2020            0.0000000000
     24777      2181  TIP3      OH2            18.7497833297       18.7306479581       36.9316624341  TIP3      2021            0.0000000000
     24778      2181  TIP3      H1             18.1182983071       18.5860256351       36.1824516783  TIP3      2021            0.0000000000
     24779      2181  TIP3      H2             18.6747125442       19.7103119466       36.9892519624  TIP3      2021            0.0000000000
     24780      2182  TIP3      OH2            32.9618472768       12.8970526422       27.1058936442  TIP3      2022            0.0000000000
     24781      2182  TIP3      H1             33.8396353462       12.9763202665       27.5133928412  TIP3      2022            0.0000000000
     24782      2182  TIP3      H2             32.9937539570       13.4914815721       26.3299054325  TIP3      2022            0.0000000000
     24783      2183  TIP3      OH2            32.1422926827       11.8212735715       30.0766209163  TIP3      2023            0.0000000000
     24784      2183  TIP3      H1             32.8380100568       11.3841917405       30.5985959792  TIP3      2023            0.0000000000
     24785      2183  TIP3      H2             31.6406457636       11.0265433144       29.8109506777  TIP3      2023            0.0000000000
     24786      2184  TIP3      OH2            24.5019743602       11.6083889073       31.8660455407  TIP3      2024            0.0000000000
     24787      2184  TIP3      H1             24.5579314851       10.9304680294       32.5561111161  TIP3      2024            0.0000000000
     24788      2184  TIP3      H2             25.3923383055       11.9923472400       31.9105853523  TIP3      2024            0.0000000000
     24789      2185  TIP3      OH2            25.0444083645       15.4608121709       30.7668063371  TIP3      2025            0.0000000000
     24790      2185  TIP3      H1             25.1982641921       14.7720695738       30.0708471304  TIP3      2025            0.0000000000
     24791      2185  TIP3      H2             25.5459220850       15.0926239170       31.5231377991  TIP3      2025            0.0000000000
     24792      2186  TIP3      OH2            22.1422898971        9.3644982193       25.8549673467  TIP3      2026            0.0000000000
     24793      2186  TIP3      H1             21.9739712128       10.3301551871       25.8492362868  TIP3      2026            0.0000000000
     24794      2186  TIP3      H2             21.3130851353        9.0724867908       25.4474481112  TIP3      2026            0.0000000000
     24795      2187  TIP3      OH2            23.2936197901       11.5961781084       28.2841729113  TIP3      2027            0.0000000000
     24796      2187  TIP3      H1             23.1837482047       10.6354162314       28.1689967624  TIP3      2027            0.0000000000
     24797      2187  TIP3      H2             22.7509104992       12.0525828352       27.6096503541  TIP3      2027            0.0000000000
     24798      2188  TIP3      OH2            33.0040933776       19.3111430876       28.8136626054  TIP3      2028            0.0000000000
     24799      2188  TIP3      H1             33.9433344424       19.0693955019       28.6773723313  TIP3      2028            0.0000000000
     24800      2188  TIP3      H2             32.9503789189       19.3143188453       29.7815446314  TIP3      2028            0.0000000000
     24801      2189  TIP3      OH2            30.8334074893       14.2742441447       30.3346095745  TIP3      2029            0.0000000000
     24802      2189  TIP3      H1             31.3434947118       13.5687626065       29.8794784706  TIP3      2029            0.0000000000
     24803      2189  TIP3      H2             31.5227107610       14.7874936114       30.7847339817  TIP3      2029            0.0000000000
     24804      2190  TIP3      OH2            32.8125612635        8.6961114814       31.2812898453  TIP3      2030            0.0000000000
     24805      2190  TIP3      H1             32.9709738665        8.0285936082       31.9660060405  TIP3      2030            0.0000000000
     24806      2190  TIP3      H2             33.7068190795        8.7511411783       30.8649613234  TIP3      2030            0.0000000000
     24807      2191  TIP3      OH2            26.6592930978        6.4627254675       27.9278919897  TIP3      2031            0.0000000000
     24808      2191  TIP3      H1             26.8671357529        7.2361220244       27.3700701236  TIP3      2031            0.0000000000
     24809      2191  TIP3      H2             26.4136649959        5.8380356403       27.2097407409  TIP3      2031            0.0000000000
     24810      2192  TIP3      OH2            34.4028277819        7.3455581853       26.7844520161  TIP3      2032            0.0000000000
     24811      2192  TIP3      H1             34.8571429648        6.5754426875       27.1846182438  TIP3      2032            0.0000000000
     24812      2192  TIP3      H2             35.1489972717        7.8761213403       26.4828537280  TIP3      2032            0.0000000000
     24813      2193  TIP3      OH2            23.3550224986        8.9131384235       28.8960491693  TIP3      2033            0.0000000000
     24814      2193  TIP3      H1             24.0398966975        8.6532602248       29.5246023966  TIP3      2033            0.0000000000
     24815      2193  TIP3      H2             23.6557551262        8.4648196930       28.0715083841  TIP3      2033            0.0000000000
     24816      2194  TIP3      OH2            28.9527337608       10.2012426891       27.5426540692  TIP3      2034            0.0000000000
     24817      2194  TIP3      H1             29.4578791129        9.4060218410       27.7994600459  TIP3      2034            0.0000000000
     24818      2194  TIP3      H2             28.0424410248        9.8429183578       27.5909183754  TIP3      2034            0.0000000000
     24819      2195  TIP3      OH2            26.3955317186        5.8054263237       32.0361328956  TIP3      2035            0.0000000000
     24820      2195  TIP3      H1             25.7129719395        6.2942051977       31.5271524820  TIP3      2035            0.0000000000
     24821      2195  TIP3      H2             25.9009120603        5.5737787751       32.8442428206  TIP3      2035            0.0000000000
     24822      2196  TIP3      OH2            33.5252775787       16.1399215146       26.7961357621  TIP3      2036            0.0000000000
     24823      2196  TIP3      H1             33.5063196994       15.4208089379       26.1440948409  TIP3      2036            0.0000000000
     24824      2196  TIP3      H2             32.5793185018       16.2353460151       27.0035557701  TIP3      2036            0.0000000000
     24825      2197  TIP3      OH2            28.9336242002       14.6057550092       32.7397624841  TIP3      2037            0.0000000000
     24826      2197  TIP3      H1             28.0931949217       14.5174080655       33.2264258091  TIP3      2037            0.0000000000
     24827      2197  TIP3      H2             28.6355426853       14.2092168868       31.9093231454  TIP3      2037            0.0000000000
     24828      2198  TIP3      OH2            25.5299127018        7.4636356588       30.0333185564  TIP3      2038            0.0000000000
     24829      2198  TIP3      H1             25.8713744815        8.3802985366       30.0223165779  TIP3      2038            0.0000000000
     24830      2198  TIP3      H2             25.8193547725        7.1515212531       29.1313629975  TIP3      2038            0.0000000000
     24831      2199  TIP3      OH2            26.3251447240       15.3672395275       33.2816274272  TIP3      2039            0.0000000000
     24832      2199  TIP3      H1             26.2544931292       16.3292780943       33.1806729925  TIP3      2039            0.0000000000
     24833      2199  TIP3      H2             25.4768440324       15.2465332589       33.7627559657  TIP3      2039            0.0000000000
     24834      2200  TIP3      OH2            22.7671944002       14.9762860082       23.8787915069  TIP3      2040            0.0000000000
     24835      2200  TIP3      H1             22.6240167438       15.7226285329       23.2689156738  TIP3      2040            0.0000000000
     24836      2200  TIP3      H2             22.7003464853       15.3717634378       24.7660371714  TIP3      2040            0.0000000000
     24837      2201  TIP3      OH2            29.3615556145        2.6980582994       30.0105921765  TIP3      2041            0.0000000000
     24838      2201  TIP3      H1             29.0855646725        1.7815830439       29.8039034371  TIP3      2041            0.0000000000
     24839      2201  TIP3      H2             28.4758413947        3.1069120592       30.1690287082  TIP3      2041            0.0000000000
     24840      2202  TIP3      OH2            35.2083780827       18.3508310851       26.2960554827  TIP3      2042            0.0000000000
     24841      2202  TIP3      H1             34.6602457584       17.5649881053       26.5393556412  TIP3      2042            0.0000000000
     24842      2202  TIP3      H2             35.3794395921       18.7508074418       27.1794702280  TIP3      2042            0.0000000000
     24843      2203  TIP3      OH2            31.7615155205       11.5270113336       23.3867070618  TIP3      2043            0.0000000000
     24844      2203  TIP3      H1             31.6345666435       12.4780336843       23.6075890302  TIP3      2043            0.0000000000
     24845      2203  TIP3      H2             32.7443225082       11.5390864736       23.3294066707  TIP3      2043            0.0000000000
     24846      2204  TIP3      OH2            31.7209065050       10.1948613711       21.1252880492  TIP3      2044            0.0000000000
     24847      2204  TIP3      H1             31.7380021581       10.8743524345       21.8355399645  TIP3      2044            0.0000000000
     24848      2204  TIP3      H2             31.8559287174        9.4175965593       21.7282975597  TIP3      2044            0.0000000000
     24849      2205  TIP3      OH2            26.9913222007       12.3559845037       26.8314018106  TIP3      2045            0.0000000000
     24850      2205  TIP3      H1             26.9797033118       12.0106078373       25.9160017377  TIP3      2045            0.0000000000
     24851      2205  TIP3      H2             27.7015696521       11.8479758458       27.2482926336  TIP3      2045            0.0000000000
     24852      2206  TIP3      OH2            28.4341188941       15.7713576511       29.7515599409  TIP3      2046            0.0000000000
     24853      2206  TIP3      H1             28.4638568054       15.7688954727       28.7635309212  TIP3      2046            0.0000000000
     24854      2206  TIP3      H2             29.3270913038       15.4472124772       29.9741446969  TIP3      2046            0.0000000000
     24855      2207  TIP3      OH2            27.5804749045       11.1768026175       29.7862545705  TIP3      2047            0.0000000000
     24856      2207  TIP3      H1             28.3348847173       11.5501197080       29.3222197936  TIP3      2047            0.0000000000
     24857      2207  TIP3      H2             27.5701667298       11.6390120163       30.6423231362  TIP3      2047            0.0000000000
     24858      2208  TIP3      OH2            32.2519147751       16.8487847019       31.2944274630  TIP3      2048            0.0000000000
     24859      2208  TIP3      H1             32.9213724080       17.5588282379       31.4257498200  TIP3      2048            0.0000000000
     24860      2208  TIP3      H2             32.6116274813       16.1385519650       31.8488461782  TIP3      2048            0.0000000000
     24861      2209  TIP3      OH2            28.5040598684       15.5489620763       35.4297356244  TIP3      2049            0.0000000000
     24862      2209  TIP3      H1             27.8932278097       15.9936533846       36.0567383027  TIP3      2049            0.0000000000
     24863      2209  TIP3      H2             28.0581131679       15.7519273783       34.5872330796  TIP3      2049            0.0000000000
     24864      2210  TIP3      OH2            34.4820815532       11.7656056408       23.0759668797  TIP3      2050            0.0000000000
     24865      2210  TIP3      H1             34.8805616296       12.1694302933       23.8613757636  TIP3      2050            0.0000000000
     24866      2210  TIP3      H2             34.8277819799       12.3891935865       22.4133144681  TIP3      2050            0.0000000000
     24867      2211  TIP3      OH2            24.9220430441       12.1304517373       34.7487210591  TIP3      2051            0.0000000000
     24868      2211  TIP3      H1             24.8772732945       12.8624763561       35.4116828029  TIP3      2051            0.0000000000
     24869      2211  TIP3      H2             25.4624939302       12.5796837635       34.0755664727  TIP3      2051            0.0000000000
     24870      2212  TIP3      OH2            31.5332282556       19.1934343687       26.4457723184  TIP3      2052            0.0000000000
     24871      2212  TIP3      H1             31.8614087239       19.1299518673       27.3649746788  TIP3      2052            0.0000000000
     24872      2212  TIP3      H2             30.8901978008       19.9408135505       26.5365965388  TIP3      2052            0.0000000000
     24873      2213  TIP3      OH2            26.7017616369       17.3595819180       36.3705724992  TIP3      2053            0.0000000000
     24874      2213  TIP3      H1             26.5246958981       17.7155535336       35.4704351625  TIP3      2053            0.0000000000
     24875      2213  TIP3      H2             25.8113150518       17.0764491664       36.6570586232  TIP3      2053            0.0000000000
     24876      2214  TIP3      OH2            26.0231815993       11.6101253322       24.3841656870  TIP3      2054            0.0000000000
     24877      2214  TIP3      H1             25.5809526297       12.4238534548       24.0719283127  TIP3      2054            0.0000000000
     24878      2214  TIP3      H2             25.3079326600       11.1786879270       24.8670568973  TIP3      2054            0.0000000000
     24879      2215  TIP3      OH2            22.4062067275       14.3491414633       33.4814916865  TIP3      2055            0.0000000000
     24880      2215  TIP3      H1             22.1278783262       14.7369720740       32.6265466906  TIP3      2055            0.0000000000
     24881      2215  TIP3      H2             22.6845469144       13.4661838423       33.2021005690  TIP3      2055            0.0000000000
     24882      2216  TIP3      OH2            22.6651067469       16.8708175025       30.1554703077  TIP3      2056            0.0000000000
     24883      2216  TIP3      H1             23.2910031964       16.1654433026       29.9281396111  TIP3      2056            0.0000000000
     24884      2216  TIP3      H2             23.0865114791       17.1404317652       31.0055539632  TIP3      2056            0.0000000000
     24885      2217  TIP3      OH2            31.1594815368       16.8453763011       35.5755723063  TIP3      2057            0.0000000000
     24886      2217  TIP3      H1             30.9373263580       17.7901529523       35.7311846392  TIP3      2057            0.0000000000
     24887      2217  TIP3      H2             30.2798497870       16.4623507153       35.3832102450  TIP3      2057            0.0000000000
     24888      2218  TIP3      OH2            31.4391988602       21.3146732582       24.5605071857  TIP3      2058            0.0000000000
     24889      2218  TIP3      H1             31.2576493885       22.0151811045       23.9249207581  TIP3      2058            0.0000000000
     24890      2218  TIP3      H2             31.5554458516       21.8934734203       25.3444151823  TIP3      2058            0.0000000000
     24891      2219  TIP3      OH2            25.3730104393       19.6902216784       26.1378858574  TIP3      2059            0.0000000000
     24892      2219  TIP3      H1             25.8541058464       19.3829366202       26.9351959732  TIP3      2059            0.0000000000
     24893      2219  TIP3      H2             24.8862084491       18.8894577759       25.8603843080  TIP3      2059            0.0000000000
     24894      2220  TIP3      OH2            32.5702851522       18.4012583220       22.4260695295  TIP3      2060            0.0000000000
     24895      2220  TIP3      H1             33.2627615259       17.7908566053       22.1632031751  TIP3      2060            0.0000000000
     24896      2220  TIP3      H2             32.9503670466       18.8247139759       23.2376511772  TIP3      2060            0.0000000000
     24897      2221  TIP3      OH2            33.7017356748       19.6051686514       24.4394115715  TIP3      2061            0.0000000000
     24898      2221  TIP3      H1             32.9016140221       19.8771804609       24.9479010965  TIP3      2061            0.0000000000
     24899      2221  TIP3      H2             34.2449003680       19.2319902907       25.1694537257  TIP3      2061            0.0000000000
     24900      2222  TIP3      OH2            24.1739619488       16.0979670706       34.6128768549  TIP3      2062            0.0000000000
     24901      2222  TIP3      H1             24.0191980851       16.3893707273       35.5384830538  TIP3      2062            0.0000000000
     24902      2222  TIP3      H2             23.4970158802       15.4056595114       34.5015758040  TIP3      2062            0.0000000000
     24903      2223  TIP3      OH2            27.0465770826        3.7567659157       30.4900312052  TIP3      2063            0.0000000000
     24904      2223  TIP3      H1             26.1338856684        3.6226569717       30.1513185552  TIP3      2063            0.0000000000
     24905      2223  TIP3      H2             26.8864846697        4.3785814969       31.2304886096  TIP3      2063            0.0000000000
     24906      2224  TIP3      OH2            32.0354776490        3.6229010160       33.9566474520  TIP3      2064            0.0000000000
     24907      2224  TIP3      H1             32.5900549152        3.0510692719       34.5464968482  TIP3      2064            0.0000000000
     24908      2224  TIP3      H2             31.1301878048        3.4850204641       34.2983607828  TIP3      2064            0.0000000000
     24909      2225  TIP3      OH2            27.2356115275        8.9238549855       31.7398531304  TIP3      2065            0.0000000000
     24910      2225  TIP3      H1             26.3622274354        8.9301057715       32.1663655152  TIP3      2065            0.0000000000
     24911      2225  TIP3      H2             27.3964624600        9.8973863231       31.6872446474  TIP3      2065            0.0000000000
     24912      2226  TIP3      OH2            26.7884896015        8.8675016922       26.7666445753  TIP3      2066            0.0000000000
     24913      2226  TIP3      H1             25.9015425242        8.6138206578       26.4541545162  TIP3      2066            0.0000000000
     24914      2226  TIP3      H2             27.2628772948        9.0287912452       25.9138266827  TIP3      2066            0.0000000000
     24915      2227  TIP3      OH2            32.8650434744        9.9805353083       25.4605900597  TIP3      2067            0.0000000000
     24916      2227  TIP3      H1             32.2900430849       10.2340888631       24.7115230849  TIP3      2067            0.0000000000
     24917      2227  TIP3      H2             33.3184178951        9.2509064888       24.9997295986  TIP3      2067            0.0000000000
     24918      2228  TIP3      OH2            31.6916065280        9.8143028183       37.0664198140  TIP3      2068            0.0000000000
     24919      2228  TIP3      H1             31.1889234802        9.0519036641       37.4198770716  TIP3      2068            0.0000000000
     24920      2228  TIP3      H2             32.5119974211        9.7570524786       37.6199811990  TIP3      2068            0.0000000000
     24921      2229  TIP3      OH2            33.7848329182        9.4003562904       28.4513239186  TIP3      2069            0.0000000000
     24922      2229  TIP3      H1             33.6362810009        9.6200198402       27.5202740503  TIP3      2069            0.0000000000
     24923      2229  TIP3      H2             33.9200335308        8.4384538163       28.4025908640  TIP3      2069            0.0000000000
     24924      2230  TIP3      OH2            25.0202054411        8.6876825604       33.2379069734  TIP3      2070            0.0000000000
     24925      2230  TIP3      H1             25.7925620606        8.5602857203       33.8149336630  TIP3      2070            0.0000000000
     24926      2230  TIP3      H2             24.6379126521        7.7909687600       33.2215954837  TIP3      2070            0.0000000000
     24927      2231  TIP3      OH2            21.6695286605        6.1492218937       27.8185489226  TIP3      2071            0.0000000000
     24928      2231  TIP3      H1             22.4711061415        6.1076154270       28.3572880764  TIP3      2071            0.0000000000
     24929      2231  TIP3      H2             21.9509819738        6.7116772062       27.0838691690  TIP3      2071            0.0000000000
     24930      2232  TIP3      OH2            32.7511495906       11.0738561983       32.8311710668  TIP3      2072            0.0000000000
     24931      2232  TIP3      H1             33.3698612276       10.4012337401       32.4928493280  TIP3      2072            0.0000000000
     24932      2232  TIP3      H2             32.0773565152       10.5379513893       33.2928983836  TIP3      2072            0.0000000000
     24933      2233  TIP3      OH2            29.6845336002        6.6273215897       28.4065997278  TIP3      2073            0.0000000000
     24934      2233  TIP3      H1             29.7925928648        6.9344596338       27.4808503342  TIP3      2073            0.0000000000
     24935      2233  TIP3      H2             30.2972900228        5.8587984522       28.4309032875  TIP3      2073            0.0000000000
     24936      2234  TIP3      OH2            24.0900689794        7.5452178236       26.6772993744  TIP3      2074            0.0000000000
     24937      2234  TIP3      H1             23.3779833916        7.9110448435       26.1117620795  TIP3      2074            0.0000000000
     24938      2234  TIP3      H2             24.4199795491        6.7701349182       26.1870342158  TIP3      2074            0.0000000000
     24939      2235  TIP3      OH2            27.9242718847        8.5505375790       24.3077879563  TIP3      2075            0.0000000000
     24940      2235  TIP3      H1             28.8771967886        8.4054039994       24.1817051645  TIP3      2075            0.0000000000
     24941      2235  TIP3      H2             27.6981497292        9.0448422234       23.5140286081  TIP3      2075            0.0000000000
     24942      2236  TIP3      OH2            34.1570721320        5.8445029729       30.4012362082  TIP3      2076            0.0000000000
     24943      2236  TIP3      H1             33.5171640729        5.5075949309       31.0405801365  TIP3      2076            0.0000000000
     24944      2236  TIP3      H2             33.9551698795        5.3722537216       29.5801398912  TIP3      2076            0.0000000000
     24945      2237  TIP3      OH2            24.9478044044       13.8694641346       36.8674318919  TIP3      2077            0.0000000000
     24946      2237  TIP3      H1             25.6988480314       14.2453831792       37.3743402784  TIP3      2077            0.0000000000
     24947      2237  TIP3      H2             24.3172652302       13.6820026026       37.5877182745  TIP3      2077            0.0000000000
     24948      2238  TIP3      OH2            31.1822740603        9.2352362185       29.0789553951  TIP3      2078            0.0000000000
     24949      2238  TIP3      H1             32.1408448684        9.0382650771       29.1854563757  TIP3      2078            0.0000000000
     24950      2238  TIP3      H2             30.8397433543        8.8779088605       29.9114429752  TIP3      2078            0.0000000000
     24951      2239  TIP3      OH2            25.7603095340        5.2264702889       25.7668600420  TIP3      2079            0.0000000000
     24952      2239  TIP3      H1             24.9313575086        4.8500472956       26.1323427555  TIP3      2079            0.0000000000
     24953      2239  TIP3      H2             26.2506566311        4.4098267656       25.5927192383  TIP3      2079            0.0000000000
     24954      2240  TIP3      OH2            29.6896500675        7.9868671114       32.0682690357  TIP3      2080            0.0000000000
     24955      2240  TIP3      H1             28.9075219696        8.5829081603       32.1625076153  TIP3      2080            0.0000000000
     24956      2240  TIP3      H2             30.3561970206        8.3999519818       32.6457237131  TIP3      2080            0.0000000000
     24957      2241  TIP3      OH2            28.7335110374       14.0670521791       24.0135538239  TIP3      2081            0.0000000000
     24958      2241  TIP3      H1             28.7385580972       13.3042322799       23.3933143991  TIP3      2081            0.0000000000
     24959      2241  TIP3      H2             29.6916169434       14.2402942184       24.1512769829  TIP3      2081            0.0000000000
     24960      2242  TIP3      OH2            31.7634268556       13.9071055279       35.3258860447  TIP3      2082            0.0000000000
     24961      2242  TIP3      H1             30.9745787644       13.5188484313       35.7346982999  TIP3      2082            0.0000000000
     24962      2242  TIP3      H2             31.5903034942       14.8464117918       35.4921304255  TIP3      2082            0.0000000000
     24963      2243  TIP3      OH2           -35.1716058637        8.9526935926       23.7522784280  TIP3      2083            0.0000000000
     24964      2243  TIP3      H1            -34.3663284965        8.6223994047       23.3155917277  TIP3      2083            0.0000000000
     24965      2243  TIP3      H2            -35.3749709974        9.7259439422       23.1897892234  TIP3      2083            0.0000000000
     24966      2244  TIP3      OH2            25.3274899083       13.3830411595       28.9854490455  TIP3      2084            0.0000000000
     24967      2244  TIP3      H1             25.5467031222       13.2221805965       28.0542967408  TIP3      2084            0.0000000000
     24968      2244  TIP3      H2             25.2954353255       12.4782474786       29.3307189575  TIP3      2084            0.0000000000
     24969      2245  TIP3      OH2            31.9765081310       15.7616097398       21.9107466147  TIP3      2085            0.0000000000
     24970      2245  TIP3      H1             32.0574667229       16.5927128592       22.4055572029  TIP3      2085            0.0000000000
     24971      2245  TIP3      H2             31.9416227415       15.1235857545       22.6607581864  TIP3      2085            0.0000000000
     24972      2246  TIP3      OH2            21.9123853093       11.2732098108       34.6942722304  TIP3      2086            0.0000000000
     24973      2246  TIP3      H1             21.5460224737       10.7755272596       35.4624585704  TIP3      2086            0.0000000000
     24974      2246  TIP3      H2             21.5204082864       10.8357467573       33.9096231849  TIP3      2086            0.0000000000
     24975      2247  TIP3      OH2            29.1792735151       11.0074140622       36.8407960849  TIP3      2087            0.0000000000
     24976      2247  TIP3      H1             29.0049521368       10.0842788157       36.6114594148  TIP3      2087            0.0000000000
     24977      2247  TIP3      H2             30.1567111581       10.9736850470       36.8700321911  TIP3      2087            0.0000000000
     24978      2248  TIP3      OH2            34.3551742524       16.4370492412       35.0805450519  TIP3      2088            0.0000000000
     24979      2248  TIP3      H1             33.5083675168       16.4471289531       34.6254854266  TIP3      2088            0.0000000000
     24980      2248  TIP3      H2             34.2373120463       17.2267684257       35.6355305573  TIP3      2088            0.0000000000
     24981      2249  TIP3      OH2            27.5703245168       16.7184691044       27.2885671005  TIP3      2089            0.0000000000
     24982      2249  TIP3      H1             28.0668427592       17.3774878989       26.7629320677  TIP3      2089            0.0000000000
     24983      2249  TIP3      H2             26.8512115615       17.2714775424       27.6481180218  TIP3      2089            0.0000000000
     24984      2250  TIP3      OH2            23.8157997032       11.7364654810       21.2433253895  TIP3      2090            0.0000000000
     24985      2250  TIP3      H1             24.3357044079       12.2180597178       21.9147283582  TIP3      2090            0.0000000000
     24986      2250  TIP3      H2             22.8996348113       11.8336923921       21.5878898618  TIP3      2090            0.0000000000
     24987      2251  TIP3      OH2            28.9672040411       14.2931585801       26.7294072433  TIP3      2091            0.0000000000
     24988      2251  TIP3      H1             28.8440453106       14.5136904702       25.7844586413  TIP3      2091            0.0000000000
     24989      2251  TIP3      H2             28.0830028783       13.9660793189       26.9538917106  TIP3      2091            0.0000000000
     24990      2252  TIP3      OH2            29.6468901511       18.3809568444       33.2787825856  TIP3      2092            0.0000000000
     24991      2252  TIP3      H1             30.0391576285       19.2614757644       33.0701294399  TIP3      2092            0.0000000000
     24992      2252  TIP3      H2             30.4600326349       17.9357417329       33.5898069422  TIP3      2092            0.0000000000
     24993      2253  TIP3      OH2            27.9012088304       18.9679555658       25.7414964492  TIP3      2093            0.0000000000
     24994      2253  TIP3      H1             27.0283241903       19.3943893256       25.8241791870  TIP3      2093            0.0000000000
     24995      2253  TIP3      H2             28.5113388303       19.7091691566       25.8974457501  TIP3      2093            0.0000000000
     24996      2254  TIP3      OH2            33.2176538634       14.6044138328       32.7149231361  TIP3      2094            0.0000000000
     24997      2254  TIP3      H1             33.7037676030       14.7816597185       33.5517741433  TIP3      2094            0.0000000000
     24998      2254  TIP3      H2             33.8195299798       13.9862186120       32.2578150544  TIP3      2094            0.0000000000
     24999      2255  TIP3      OH2            24.3632191382        6.1829763424       34.1742193809  TIP3      2095            0.0000000000
     25000      2255  TIP3      H1             23.5066492540        6.6406821857       34.2458851008  TIP3      2095            0.0000000000
     25001      2255  TIP3      H2             24.1665827573        5.3485970077       34.6452911570  TIP3      2095            0.0000000000
     25002      2256  TIP3      OH2            23.7784277112       17.5516241972       32.4518109354  TIP3      2096            0.0000000000
     25003      2256  TIP3      H1             24.0771616046       17.1353556145       33.2877225979  TIP3      2096            0.0000000000
     25004      2256  TIP3      H2             23.3503591675       18.3747023993       32.7921326232  TIP3      2096            0.0000000000
     25005      2257  TIP3      OH2            24.9769367697       13.5780737779       22.8784549824  TIP3      2097            0.0000000000
     25006      2257  TIP3      H1             24.4391403434       14.1491525199       23.4706090809  TIP3      2097            0.0000000000
     25007      2257  TIP3      H2             25.6811888585       14.1387741177       22.5308961157  TIP3      2097            0.0000000000
     25008      2258  TIP3      OH2            32.9554739422        6.4370828937       33.6350450961  TIP3      2098            0.0000000000
     25009      2258  TIP3      H1             33.4656785320        6.6145142363       34.4455483353  TIP3      2098            0.0000000000
     25010      2258  TIP3      H2             32.6386224512        5.5356447723       33.8375194327  TIP3      2098            0.0000000000
     25011      2259  TIP3      OH2            33.4094283404        5.9007072268       24.5293905210  TIP3      2099            0.0000000000
     25012      2259  TIP3      H1             32.9917800944        6.4357498573       23.8104463201  TIP3      2099            0.0000000000
     25013      2259  TIP3      H2             33.7102398481        6.5876841752       25.1564782987  TIP3      2099            0.0000000000
     25014      2260  TIP3      OH2            29.9816847306       18.5729209890       23.4993489982  TIP3      2100            0.0000000000
     25015      2260  TIP3      H1             30.0684700118       19.0067119653       24.3646636958  TIP3      2100            0.0000000000
     25016      2260  TIP3      H2             30.9118687713       18.4764821154       23.2569789260  TIP3      2100            0.0000000000
     25017      2261  TIP3      OH2            30.6101606359        7.6183835276       26.0795752586  TIP3      2101            0.0000000000
     25018      2261  TIP3      H1             30.9786817986        7.6210377991       25.1587766172  TIP3      2101            0.0000000000
     25019      2261  TIP3      H2             31.4190739006        7.5129218655       26.5990453782  TIP3      2101            0.0000000000
     25020      2262  TIP3      OH2            31.1167604631        8.3228273366       34.7322839514  TIP3      2102            0.0000000000
     25021      2262  TIP3      H1             31.4205703201        8.7493916825       35.5664268057  TIP3      2102            0.0000000000
     25022      2262  TIP3      H2             31.8121247806        7.6647280007       34.5235798332  TIP3      2102            0.0000000000
     25023      2263  TIP3      OH2            31.7433168700        4.2731533076       25.9979624726  TIP3      2103            0.0000000000
     25024      2263  TIP3      H1             31.5710710642        4.6700600849       26.8675981872  TIP3      2103            0.0000000000
     25025      2263  TIP3      H2             32.2066431171        4.9827231603       25.4975596017  TIP3      2103            0.0000000000
     25026      2264  TIP3      OH2            23.0476667795        9.0122333206       20.6875793285  TIP3      2104            0.0000000000
     25027      2264  TIP3      H1             23.8519718394        9.2985269528       20.2282124602  TIP3      2104            0.0000000000
     25028      2264  TIP3      H2             22.8317605953        9.8116100527       21.1961941810  TIP3      2104            0.0000000000
     25029      2265  TIP3      OH2            24.4749478800        3.5529345858       29.9762016543  TIP3      2105            0.0000000000
     25030      2265  TIP3      H1             24.3169906707        3.5345990120       29.0111443458  TIP3      2105            0.0000000000
     25031      2265  TIP3      H2             24.0385969550        2.7001092896       30.2220407774  TIP3      2105            0.0000000000
     25032      2266  TIP3      OH2            23.7448502924       17.3205066635       25.9325740265  TIP3      2106            0.0000000000
     25033      2266  TIP3      H1             22.9201679337       16.9179649741       26.2588483567  TIP3      2106            0.0000000000
     25034      2266  TIP3      H2             23.4098679848       17.8756982419       25.1898336978  TIP3      2106            0.0000000000
     25035      2267  TIP3      OH2            22.5717475166       20.4530842721       37.0969768146  TIP3      2107            0.0000000000
     25036      2267  TIP3      H1             23.2225459161       20.3025970524       37.8229878780  TIP3      2107            0.0000000000
     25037      2267  TIP3      H2             22.3744341981       19.5648795301       36.7816418202  TIP3      2107            0.0000000000
     25038      2268  TIP3      OH2            27.5217152360       18.7470750816       38.9957601528  TIP3      2108            0.0000000000
     25039      2268  TIP3      H1             28.3615329033       19.2223228107       39.0945756143  TIP3      2108            0.0000000000
     25040      2268  TIP3      H2             27.5616748369       18.3888816221       38.0923684873  TIP3      2108            0.0000000000
     25041      2269  TIP3      OH2            34.1113009605       17.6002540225       37.7200403758  TIP3      2109            0.0000000000
     25042      2269  TIP3      H1             33.6347603749       16.7395478775       37.6337568485  TIP3      2109            0.0000000000
     25043      2269  TIP3      H2             34.7633705488       17.3570900414       38.3916452095  TIP3      2109            0.0000000000
     25044      2270  TIP3      OH2            22.3654224306       13.5123396333       38.1211585920  TIP3      2110            0.0000000000
     25045      2270  TIP3      H1             22.2760250354       12.6042279827       37.8004199848  TIP3      2110            0.0000000000
     25046      2270  TIP3      H2             22.1561601402       14.0445484942       37.3243548283  TIP3      2110            0.0000000000
     25047      2271  TIP3      OH2            29.3919922103       13.6324701066       36.9941970851  TIP3      2111            0.0000000000
     25048      2271  TIP3      H1             29.0234284011       14.2965933865       36.3601700940  TIP3      2111            0.0000000000
     25049      2271  TIP3      H2             29.2039897965       12.7864116785       36.5363314419  TIP3      2111            0.0000000000
     25050      2272  TIP3      OH2            32.4138343097       14.8642222017       19.4259035881  TIP3      2112            0.0000000000
     25051      2272  TIP3      H1             32.3289802410       15.2284939716       20.3316082256  TIP3      2112            0.0000000000
     25052      2272  TIP3      H2             31.5411897220       14.4824114106       19.3232395365  TIP3      2112            0.0000000000
     25053      2273  TIP3      OH2            23.4427825318       10.9320811647       37.7403440130  TIP3      2113            0.0000000000
     25054      2273  TIP3      H1             24.0497193413       10.2452795871       38.0490380053  TIP3      2113            0.0000000000
     25055      2273  TIP3      H2             23.3822704687       11.4292294283       38.5856146699  TIP3      2113            0.0000000000
     25056      2274  TIP3      OH2            27.6454859663       12.4342722405       22.1287570341  TIP3      2114            0.0000000000
     25057      2274  TIP3      H1             26.9384954687       12.0597857413       22.6818233041  TIP3      2114            0.0000000000
     25058      2274  TIP3      H2             28.0014559045       11.6317725608       21.6724854166  TIP3      2114            0.0000000000
     25059      2275  TIP3      OH2            27.3595221982        9.5618810343       35.3581457344  TIP3      2115            0.0000000000
     25060      2275  TIP3      H1             27.1735153052       10.2102774772       36.0633768873  TIP3      2115            0.0000000000
     25061      2275  TIP3      H2             27.4535435648       10.1830084836       34.5968958433  TIP3      2115            0.0000000000
     25062      2276  TIP3      OH2            28.9385889921       10.3144076540       21.2278751595  TIP3      2116            0.0000000000
     25063      2276  TIP3      H1             28.5065519231       10.0326610104       20.3797759241  TIP3      2116            0.0000000000
     25064      2276  TIP3      H2             29.8757059755       10.4031097962       20.9658086231  TIP3      2116            0.0000000000
     25065      2277  TIP3      OH2            32.9227259731       12.5133984353       38.6552610324  TIP3      2117            0.0000000000
     25066      2277  TIP3      H1             33.0960276394       11.9602512642       37.8920412739  TIP3      2117            0.0000000000
     25067      2277  TIP3      H2             32.5174500170       11.8392983410       39.2463427853  TIP3      2117            0.0000000000
     25068      2278  TIP3      OH2            27.2362223899        6.6805631128       35.7331133978  TIP3      2118            0.0000000000
     25069      2278  TIP3      H1             27.9302059392        6.3923641688       35.1021990411  TIP3      2118            0.0000000000
     25070      2278  TIP3      H2             27.2606895825        7.6414636568       35.6024865002  TIP3      2118            0.0000000000
     25071      2279  TIP3      OH2            28.7957708630        5.9089408149       33.5085773315  TIP3      2119            0.0000000000
     25072      2279  TIP3      H1             29.3991127166        6.5840410237       33.1155365441  TIP3      2119            0.0000000000
     25073      2279  TIP3      H2             27.9973040007        6.0588027739       32.9772600706  TIP3      2119            0.0000000000
     25074      2280  TIP3      OH2            30.3417434252       11.0275590005       34.3610522790  TIP3      2120            0.0000000000
     25075      2280  TIP3      H1             30.2812511424       10.1572973877       34.7772759344  TIP3      2120            0.0000000000
     25076      2280  TIP3      H2             29.3977045283       11.2045170939       34.1506747316  TIP3      2120            0.0000000000
     25077      2281  TIP3      OH2            34.1024917511        9.3606812527       38.7418645811  TIP3      2121            0.0000000000
     25078      2281  TIP3      H1             34.4005413610        8.6709752918       38.1205106782  TIP3      2121            0.0000000000
     25079      2281  TIP3      H2             34.8048009980        9.3125407986       39.4207969331  TIP3      2121            0.0000000000
     25080      2282  TIP3      OH2            25.9390649152        8.6435353482       37.7899596411  TIP3      2122            0.0000000000
     25081      2282  TIP3      H1             25.5394545118        7.8005322119       37.4560525652  TIP3      2122            0.0000000000
     25082      2282  TIP3      H2             26.8606379538        8.6297710792       37.4878096136  TIP3      2122            0.0000000000
     25083      2283  TIP3      OH2            29.3371261184        3.2189027951       33.5737125356  TIP3      2123            0.0000000000
     25084      2283  TIP3      H1             29.0020706910        4.1328671799       33.4839279619  TIP3      2123            0.0000000000
     25085      2283  TIP3      H2             28.5265669432        2.7116563972       33.4359109182  TIP3      2123            0.0000000000
     25086      2284  TIP3      OH2            29.9062309087        7.7563952384       37.6798571030  TIP3      2124            0.0000000000
     25087      2284  TIP3      H1             29.9119028754        7.5829145780       38.6421621429  TIP3      2124            0.0000000000
     25088      2284  TIP3      H2             29.5290865957        6.9313309351       37.3588814714  TIP3      2124            0.0000000000
     25089      2285  TIP3      OH2            33.1524982299        6.5343914619       36.7475092997  TIP3      2125            0.0000000000
     25090      2285  TIP3      H1             32.1832037364        6.4851432433       36.7124169889  TIP3      2125            0.0000000000
     25091      2285  TIP3      H2             33.2973853828        5.9849636634       37.5446150757  TIP3      2125            0.0000000000
     25092      2286  TIP3      OH2            35.3053790286        5.3655427591       38.7374684706  TIP3      2126            0.0000000000
     25093      2286  TIP3      H1             34.8324245600        4.5863810290       38.4179881150  TIP3      2126            0.0000000000
     25094      2286  TIP3      H2             34.7340206195        5.7005080434       39.4592925042  TIP3      2126            0.0000000000
     25095      2287  TIP3      OH2            24.2966278806        6.4886826930       37.6218365502  TIP3      2127            0.0000000000
     25096      2287  TIP3      H1             24.3868041155        5.6394565819       37.1499742060  TIP3      2127            0.0000000000
     25097      2287  TIP3      H2             24.4622858215        6.2342375465       38.5512827368  TIP3      2127            0.0000000000
     25098      2288  TIP3      OH2            29.0551414141        2.9179139293       36.4699214597  TIP3      2128            0.0000000000
     25099      2288  TIP3      H1             28.9450470060        1.9641134445       36.2262501178  TIP3      2128            0.0000000000
     25100      2288  TIP3      H2             29.3448450441        3.2946974368       35.6204710293  TIP3      2128            0.0000000000
     25101      2289  TIP3      OH2            28.9945841732        3.5196736053       39.0395481003  TIP3      2129            0.0000000000
     25102      2289  TIP3      H1             29.0151668963        3.2952248799       38.0816935429  TIP3      2129            0.0000000000
     25103      2289  TIP3      H2             29.9674889918        3.6440404727       39.1602087663  TIP3      2129            0.0000000000
     25104      2290  TIP3      OH2            29.0959921820       21.0601171223       21.4526746471  TIP3      2130            0.0000000000
     25105      2290  TIP3      H1             29.9162745212       21.5785110289       21.4307182752  TIP3      2130            0.0000000000
     25106      2290  TIP3      H2             28.4044700905       21.7283156271       21.4885198631  TIP3      2130            0.0000000000
     25107      2291  TIP3      OH2            23.0168749929       16.0415514245       21.1738780490  TIP3      2131            0.0000000000
     25108      2291  TIP3      H1             23.5016324920       15.2808846576       20.8175319548  TIP3      2131            0.0000000000
     25109      2291  TIP3      H2             22.7589668694       16.5373569724       20.3748667876  TIP3      2131            0.0000000000
     25110      2292  TIP3      OH2            21.4524206520       21.0737933422       26.2288346750  TIP3      2132            0.0000000000
     25111      2292  TIP3      H1             20.8809763682       20.4326705723       25.7695615353  TIP3      2132            0.0000000000
     25112      2292  TIP3      H2             21.7407461182       20.5249729545       27.0013010882  TIP3      2132            0.0000000000
     25113      2293  TIP3      OH2            22.0455079880       19.2438040074       28.0275594861  TIP3      2133            0.0000000000
     25114      2293  TIP3      H1             21.6228873714       18.4419722508       28.3800938259  TIP3      2133            0.0000000000
     25115      2293  TIP3      H2             22.9131091046       19.1852153872       28.4647836969  TIP3      2133            0.0000000000
     25116      2294  TIP3      OH2            22.1715907935       11.9814519853       30.7182691785  TIP3      2134            0.0000000000
     25117      2294  TIP3      H1             22.3230478340       12.0497895981       29.7528568978  TIP3      2134            0.0000000000
     25118      2294  TIP3      H2             23.1151590348       12.0308057971       30.9952113186  TIP3      2134            0.0000000000
     25119      2295  TIP3      OH2            22.1300608023        7.6112658891       36.7384595622  TIP3      2135            0.0000000000
     25120      2295  TIP3      H1             22.9157341570        7.3130084586       37.2440030069  TIP3      2135            0.0000000000
     25121      2295  TIP3      H2             21.5672215810        6.8001078986       36.7894379374  TIP3      2135            0.0000000000
     25122      2296  TIP3      OH2            23.3778111786        5.9043545923       30.5133098671  TIP3      2136            0.0000000000
     25123      2296  TIP3      H1             23.7992542093        5.0145908706       30.5547802400  TIP3      2136            0.0000000000
     25124      2296  TIP3      H2             24.1096444847        6.5118202941       30.3147773917  TIP3      2136            0.0000000000
     25125      2297  TIP3      OH2            21.5779093216        9.0978344115       30.7569131111  TIP3      2137            0.0000000000
     25126      2297  TIP3      H1             22.2088911648        8.7300065952       30.0938691921  TIP3      2137            0.0000000000
     25127      2297  TIP3      H2             21.6257550159       10.0357961932       30.5075514943  TIP3      2137            0.0000000000
     25128      2298  TIP3      OH2            21.5235206827        5.7904056603       24.7869819621  TIP3      2138            0.0000000000
     25129      2298  TIP3      H1             20.5626209604        5.6568357101       24.8780655037  TIP3      2138            0.0000000000
     25130      2298  TIP3      H2             21.7372245227        5.3600843370       23.9586577286  TIP3      2138            0.0000000000
     25131      2299  TIP3      OH2            21.4814684634        3.8398529805       32.9233071589  TIP3      2139            0.0000000000
     25132      2299  TIP3      H1             21.2198395937        3.6592739310       33.8395848647  TIP3      2139            0.0000000000
     25133      2299  TIP3      H2             21.1499661472        4.7513552685       32.8246896335  TIP3      2139            0.0000000000
     25134      2300  TIP3      OH2            24.1936823177       16.8636196349       37.2046137269  TIP3      2140            0.0000000000
     25135      2300  TIP3      H1             23.8132510161       17.7524162784       37.2526429395  TIP3      2140            0.0000000000
     25136      2300  TIP3      H2             24.0916915137       16.5239325221       38.1056401324  TIP3      2140            0.0000000000
     25137      2301  TIP3      OH2            27.0049782082       18.1140920597       33.7995567420  TIP3      2141            0.0000000000
     25138      2301  TIP3      H1             26.7054743052       18.9238435793       33.3722383252  TIP3      2141            0.0000000000
     25139      2301  TIP3      H2             27.9750814522       18.1532580557       33.6224172826  TIP3      2141            0.0000000000
     25140      2302  TIP3      OH2            30.7405544742       19.3900241197       36.3909642543  TIP3      2142            0.0000000000
     25141      2302  TIP3      H1             30.9617186183       18.9897056037       37.2582167423  TIP3      2142            0.0000000000
     25142      2302  TIP3      H2             31.5791928371       19.8934538428       36.2447585197  TIP3      2142            0.0000000000
     25143      2303  TIP3      OH2            32.9813210044       20.8279891217       36.2715336974  TIP3      2143            0.0000000000
     25144      2303  TIP3      H1             33.7558023372       20.3189204257       35.9477374400  TIP3      2143            0.0000000000
     25145      2303  TIP3      H2             33.3640306725       21.2985440998       37.0459903413  TIP3      2143            0.0000000000
     25146      2304  TIP3      OH2            25.3191905134       21.7715599985       34.0506615207  TIP3      2144            0.0000000000
     25147      2304  TIP3      H1             24.5239205835       22.0379241819       33.5563158592  TIP3      2144            0.0000000000
     25148      2304  TIP3      H2             24.9007980266       21.3810584495       34.8446241950  TIP3      2144            0.0000000000
     25149      2305  TIP3      OH2            26.6993243066       20.9427267583       31.9884489535  TIP3      2145            0.0000000000
     25150      2305  TIP3      H1             26.0639929258       21.1061095618       32.7210412687  TIP3      2145            0.0000000000
     25151      2305  TIP3      H2             26.9648420676       21.8585297997       31.7471390516  TIP3      2145            0.0000000000
     25152      2306  TIP3      OH2            31.0105557904       20.5500258725       32.2817289618  TIP3      2146            0.0000000000
     25153      2306  TIP3      H1             30.6315893073       21.1007097175       31.5679467432  TIP3      2146            0.0000000000
     25154      2306  TIP3      H2             31.3287540520       21.2577195408       32.8863096046  TIP3      2146            0.0000000000
     25155      2307  TIP3      OH2            33.4007629661       19.2915978272       31.8685725566  TIP3      2147            0.0000000000
     25156      2307  TIP3      H1             32.6372314314       19.8684510571       32.0434868451  TIP3      2147            0.0000000000
     25157      2307  TIP3      H2             33.9385576811       19.4324742126       32.6724889399  TIP3      2147            0.0000000000
     25158      2308  TIP3      OH2            24.1198474096       19.8864599742       29.9233308766  TIP3      2148            0.0000000000
     25159      2308  TIP3      H1             23.6872570882       20.0147489138       30.7909862886  TIP3      2148            0.0000000000
     25160      2308  TIP3      H2             25.0411047375       20.1154169215       30.1586663130  TIP3      2148            0.0000000000
     25161      2309  TIP3      OH2            25.5437051570       18.0970778357       28.2354090178  TIP3      2149            0.0000000000
     25162      2309  TIP3      H1             24.8786604931       17.6748813864       27.6543206334  TIP3      2149            0.0000000000
     25163      2309  TIP3      H2             25.0823942567       18.9003346570       28.5651062099  TIP3      2149            0.0000000000
     25164      2310  TIP3      OH2            29.3881976022       18.9086683188       30.5388890630  TIP3      2150            0.0000000000
     25165      2310  TIP3      H1             30.2756830221       18.6344222817       30.2352274429  TIP3      2150            0.0000000000
     25166      2310  TIP3      H2             29.4345802679       18.6741257659       31.4777256501  TIP3      2150            0.0000000000
     25167      2311  TIP3      OH2            31.0439897314        4.3078724817       28.6675780729  TIP3      2151            0.0000000000
     25168      2311  TIP3      H1             30.6016062157        3.6979721948       29.3073220483  TIP3      2151            0.0000000000
     25169      2311  TIP3      H2             31.9628498810        3.9647681141       28.6469472289  TIP3      2151            0.0000000000
     25170      2312  TIP3      OH2            24.1293170346        3.4885088125       27.1016287820  TIP3      2152            0.0000000000
     25171      2312  TIP3      H1             23.3283119278        3.1358812039       26.6738037917  TIP3      2152            0.0000000000
     25172      2312  TIP3      H2             24.7426248896        2.7341621404       26.9690269457  TIP3      2152            0.0000000000
     25173      2313  TIP3      OH2            28.3905644415        3.0012525629       26.6879059422  TIP3      2153            0.0000000000
     25174      2313  TIP3      H1             29.0376961868        3.3029676864       26.0267874486  TIP3      2153            0.0000000000
     25175      2313  TIP3      H2             28.5750992677        3.5762979673       27.4459034166  TIP3      2153            0.0000000000
     25176      2314  TIP3      OH2            33.6157359520        3.5791255648       28.1808755419  TIP3      2154            0.0000000000
     25177      2314  TIP3      H1             34.4457375891        4.0044900359       27.8631206942  TIP3      2154            0.0000000000
     25178      2314  TIP3      H2             33.9038174798        2.8036631651       28.6807474387  TIP3      2154            0.0000000000
     25179      2315  TIP3      OH2            23.0825578840       18.9962078593       23.7508467942  TIP3      2155            0.0000000000
     25180      2315  TIP3      H1             23.4815838258       18.8311749952       22.8790811594  TIP3      2155            0.0000000000
     25181      2315  TIP3      H2             23.0431044620       19.9684264538       23.7004301135  TIP3      2155            0.0000000000
     25182      2316  TIP3      OH2            24.9777541793        4.4058242031       21.1036314207  TIP3      2156            0.0000000000
     25183      2316  TIP3      H1             24.6028065047        4.2628710850       20.2235187407  TIP3      2156            0.0000000000
     25184      2316  TIP3      H2             24.5539202890        5.2144974036       21.4091086395  TIP3      2156            0.0000000000
     25185      2317  TIP3      OH2            31.8280632773       20.7446372216       21.1949899868  TIP3      2157            0.0000000000
     25186      2317  TIP3      H1             32.5400551286       20.5938367221       21.8202803145  TIP3      2157            0.0000000000
     25187      2317  TIP3      H2             31.1636484286       20.1422072797       21.5781848665  TIP3      2157            0.0000000000
     25188      2318  TIP3      OH2            23.9585166130        3.9628634783       36.1330136156  TIP3      2158            0.0000000000
     25189      2318  TIP3      H1             23.7297416618        3.5863977442       37.0009109834  TIP3      2158            0.0000000000
     25190      2318  TIP3      H2             24.8886471081        3.6387676288       36.0994885262  TIP3      2158            0.0000000000
     25191      2319  TIP3      OH2            26.2283582564        2.9126845013       37.2647070797  TIP3      2159            0.0000000000
     25192      2319  TIP3      H1             27.1900987776        2.8854022078       37.4303477415  TIP3      2159            0.0000000000
     25193      2319  TIP3      H2             25.8475542771        2.7333259210       38.1391569626  TIP3      2159            0.0000000000
     25194      2320  TIP3      OH2            24.6686757598       19.9970305522       21.2096337108  TIP3      2160            0.0000000000
     25195      2320  TIP3      H1             24.2237934471       20.7335439629       21.6739832744  TIP3      2160            0.0000000000
     25196      2320  TIP3      H2             25.5506872459       20.3669538855       21.0663790369  TIP3      2160            0.0000000000
     25197      2321  TIP3      OH2            34.0231600448        2.5543314272       38.1008646663  TIP3      2161            0.0000000000
     25198      2321  TIP3      H1             33.6200171541        2.7692787910       38.9737289140  TIP3      2161            0.0000000000
     25199      2321  TIP3      H2             34.9820795892        2.5678563136       38.2830825874  TIP3      2161            0.0000000000
     25200      2322  TIP3      OH2           -23.2576650865       31.3168107489       26.7583846459  TIP3      2162            0.0000000000
     25201      2322  TIP3      H1            -23.3687601907       32.2735545326       26.9721295438  TIP3      2162            0.0000000000
     25202      2322  TIP3      H2            -23.6548756398       31.3430763459       25.8753030437  TIP3      2162            0.0000000000
     25203      2323  TIP3      OH2           -24.3405915775       30.4360921162       30.0317912268  TIP3      2163            0.0000000000
     25204      2323  TIP3      H1            -24.2884787548       30.1810614517       30.9821910659  TIP3      2163            0.0000000000
     25205      2323  TIP3      H2            -24.8798130427       29.7221790227       29.6478282137  TIP3      2163            0.0000000000
     25206      2324  TIP3      OH2           -31.8024508785       30.5604779853       31.4634469986  TIP3      2164            0.0000000000
     25207      2324  TIP3      H1            -31.9789448083       29.6045194519       31.4952526422  TIP3      2164            0.0000000000
     25208      2324  TIP3      H2            -31.1847378203       30.6807931657       32.1990209547  TIP3      2164            0.0000000000
     25209      2325  TIP3      OH2           -21.0137787297       33.4337973910       28.8369809541  TIP3      2165            0.0000000000
     25210      2325  TIP3      H1            -21.1308851183       32.8935126300       29.6401459554  TIP3      2165            0.0000000000
     25211      2325  TIP3      H2            -20.2636565161       33.9958179534       29.0795031805  TIP3      2165            0.0000000000
     25212      2326  TIP3      OH2           -31.1513541328       34.0804680802       30.7542415932  TIP3      2166            0.0000000000
     25213      2326  TIP3      H1            -31.5415704007       33.2622724867       30.4018287677  TIP3      2166            0.0000000000
     25214      2326  TIP3      H2            -30.2966693914       34.1100265514       30.2643294512  TIP3      2166            0.0000000000
     25215      2327  TIP3      OH2           -34.4883675156       28.4206513084       25.4901132478  TIP3      2167            0.0000000000
     25216      2327  TIP3      H1            -34.2784366827       29.0633266029       26.1892356166  TIP3      2167            0.0000000000
     25217      2327  TIP3      H2            -35.2887472515       28.0109690029       25.8917881649  TIP3      2167            0.0000000000
     25218      2328  TIP3      OH2           -33.5599742688       30.4998329948       27.9116759106  TIP3      2168            0.0000000000
     25219      2328  TIP3      H1            -33.0768290908       29.7669325129       28.3512850987  TIP3      2168            0.0000000000
     25220      2328  TIP3      H2            -32.9393530528       31.2340632506       28.0708065697  TIP3      2168            0.0000000000
     25221      2329  TIP3      OH2           -26.5142527980       33.8794769701       31.1727402478  TIP3      2169            0.0000000000
     25222      2329  TIP3      H1            -26.1514767140       33.3406151255       30.4504970696  TIP3      2169            0.0000000000
     25223      2329  TIP3      H2            -25.7224747296       33.9237216668       31.7571751031  TIP3      2169            0.0000000000
     25224      2330  TIP3      OH2           -17.5490619073       24.9734178508       31.2611355818  TIP3      2170            0.0000000000
     25225      2330  TIP3      H1            -17.2941265698       25.3928340184       32.1099340346  TIP3      2170            0.0000000000
     25226      2330  TIP3      H2            -16.6968866716       25.0714422231       30.7834205524  TIP3      2170            0.0000000000
     25227      2331  TIP3      OH2           -22.5391964905       27.7446828806       31.4170955849  TIP3      2171            0.0000000000
     25228      2331  TIP3      H1            -22.2638275161       26.8195508845       31.5145626109  TIP3      2171            0.0000000000
     25229      2331  TIP3      H2            -22.9082101833       27.7360015442       30.5156782496  TIP3      2171            0.0000000000
     25230      2332  TIP3      OH2           -29.8753170389       25.7889281220       28.2763161543  TIP3      2172            0.0000000000
     25231      2332  TIP3      H1            -29.2671295507       26.3193809651       27.7339780752  TIP3      2172            0.0000000000
     25232      2332  TIP3      H2            -30.3271206427       25.2679279343       27.5744966544  TIP3      2172            0.0000000000
     25233      2333  TIP3      OH2           -21.7090224439       25.8806203262       27.0138558995  TIP3      2173            0.0000000000
     25234      2333  TIP3      H1            -21.0802295392       25.4092200711       27.6068627780  TIP3      2173            0.0000000000
     25235      2333  TIP3      H2            -21.0805500978       26.3505001608       26.4340263171  TIP3      2173            0.0000000000
     25236      2334  TIP3      OH2           -32.4532807912       28.2881875615       28.8932308880  TIP3      2174            0.0000000000
     25237      2334  TIP3      H1            -31.9655129641       27.5425050626       29.2655961802  TIP3      2174            0.0000000000
     25238      2334  TIP3      H2            -32.3526357808       28.1421488812       27.9259080877  TIP3      2174            0.0000000000
     25239      2335  TIP3      OH2           -27.8935495091       29.7455563786       28.3029378816  TIP3      2175            0.0000000000
     25240      2335  TIP3      H1            -27.0594939149       29.2594693747       28.4557685814  TIP3      2175            0.0000000000
     25241      2335  TIP3      H2            -28.3566905216       29.0539158387       27.7797801644  TIP3      2175            0.0000000000
     25242      2336  TIP3      OH2           -17.3954947344       26.0077954779       33.8726972837  TIP3      2176            0.0000000000
     25243      2336  TIP3      H1            -17.8300762767       26.8792182724       33.6795056594  TIP3      2176            0.0000000000
     25244      2336  TIP3      H2            -16.5017870223       26.2314437521       34.1846161827  TIP3      2176            0.0000000000
     25245      2337  TIP3      OH2           -30.8719067210       24.2834182493       32.5647289722  TIP3      2177            0.0000000000
     25246      2337  TIP3      H1            -31.0467555608       24.7657875114       31.7325236255  TIP3      2177            0.0000000000
     25247      2337  TIP3      H2            -31.3428194959       24.8530920046       33.1993635597  TIP3      2177            0.0000000000
     25248      2338  TIP3      OH2           -23.6982884670       33.9066764526       26.4380027234  TIP3      2178            0.0000000000
     25249      2338  TIP3      H1            -23.7216415860       34.3348728731       25.5619859494  TIP3      2178            0.0000000000
     25250      2338  TIP3      H2            -24.4487471430       34.3328151811       26.8791976007  TIP3      2178            0.0000000000
     25251      2339  TIP3      OH2           -28.3523864998       32.3350663793       32.6237609289  TIP3      2179            0.0000000000
     25252      2339  TIP3      H1            -29.1602449762       32.8834752094       32.6988860895  TIP3      2179            0.0000000000
     25253      2339  TIP3      H2            -27.7130413524       33.0206399685       32.3504084141  TIP3      2179            0.0000000000
     25254      2340  TIP3      OH2           -19.8827258403       24.6231247137       28.5948990316  TIP3      2180            0.0000000000
     25255      2340  TIP3      H1            -20.2866843705       24.6572224657       29.4818662033  TIP3      2180            0.0000000000
     25256      2340  TIP3      H2            -18.9446396823       24.7721910369       28.7886423128  TIP3      2180            0.0000000000
     25257      2341  TIP3      OH2           -31.1297769037       26.2346908160       30.5522309277  TIP3      2181            0.0000000000
     25258      2341  TIP3      H1            -30.6546072714       27.0359464776       30.8930405689  TIP3      2181            0.0000000000
     25259      2341  TIP3      H2            -30.5573354577       26.0072657934       29.7730547729  TIP3      2181            0.0000000000
     25260      2342  TIP3      OH2           -29.9180517342       34.5472478940       33.0858247084  TIP3      2182            0.0000000000
     25261      2342  TIP3      H1            -30.5798038705       34.6873279029       32.3612248777  TIP3      2182            0.0000000000
     25262      2342  TIP3      H2            -30.5435423630       34.2617006857       33.7985723755  TIP3      2182            0.0000000000
     25263      2343  TIP3      OH2           -33.9114521299       33.7809086234       23.5476211026  TIP3      2183            0.0000000000
     25264      2343  TIP3      H1            -33.9309465489       33.8751711112       22.5698903648  TIP3      2183            0.0000000000
     25265      2343  TIP3      H2            -32.9757369685       33.9571140667       23.7145237721  TIP3      2183            0.0000000000
     25266      2344  TIP3      OH2           -20.0004947673       23.9168765247       31.9097726557  TIP3      2184            0.0000000000
     25267      2344  TIP3      H1            -20.7768755936       24.3828834921       31.5653743878  TIP3      2184            0.0000000000
     25268      2344  TIP3      H2            -19.2571768552       24.4789782867       31.6395280856  TIP3      2184            0.0000000000
     25269      2345  TIP3      OH2           -27.1776381108       22.0277132630       29.5641438507  TIP3      2185            0.0000000000
     25270      2345  TIP3      H1            -27.1671833917       21.0462237083       29.5707857124  TIP3      2185            0.0000000000
     25271      2345  TIP3      H2            -28.1294897372       22.1920127366       29.7681257726  TIP3      2185            0.0000000000
     25272      2346  TIP3      OH2           -19.5626124744       33.8616405386       34.5360259032  TIP3      2186            0.0000000000
     25273      2346  TIP3      H1            -19.3819796125       33.2795950209       33.7592235074  TIP3      2186            0.0000000000
     25274      2346  TIP3      H2            -20.0863824038       34.5421958190       34.0832641856  TIP3      2186            0.0000000000
     25275      2347  TIP3      OH2           -24.3181413346       30.6003256014       24.0361302946  TIP3      2187            0.0000000000
     25276      2347  TIP3      H1            -25.1612884692       31.1311140130       24.0053144731  TIP3      2187            0.0000000000
     25277      2347  TIP3      H2            -23.8034427943       31.1033049029       23.3942526002  TIP3      2187            0.0000000000
     25278      2348  TIP3      OH2           -24.5408375795       29.0654886562       21.3417357908  TIP3      2188            0.0000000000
     25279      2348  TIP3      H1            -24.1590850509       29.0111076841       22.2329893769  TIP3      2188            0.0000000000
     25280      2348  TIP3      H2            -24.3930864782       28.1759506834       20.9947816130  TIP3      2188            0.0000000000
     25281      2349  TIP3      OH2           -17.2822294976       30.3000565801       32.6320728855  TIP3      2189            0.0000000000
     25282      2349  TIP3      H1            -17.4380855785       31.2190164241       32.3634978149  TIP3      2189            0.0000000000
     25283      2349  TIP3      H2            -16.7472270717       29.9508243307       31.8920445752  TIP3      2189            0.0000000000
     25284      2350  TIP3      OH2           -20.7477522362       30.7095032032       25.5634461461  TIP3      2190            0.0000000000
     25285      2350  TIP3      H1            -21.4957990711       30.8579192959       26.1859933669  TIP3      2190            0.0000000000
     25286      2350  TIP3      H2            -20.0841778434       30.2853366769       26.1381310682  TIP3      2190            0.0000000000
     25287      2351  TIP3      OH2           -20.7649127290       29.3663308079       34.3764937424  TIP3      2191            0.0000000000
     25288      2351  TIP3      H1            -20.8233163164       30.1016844184       35.0111397256  TIP3      2191            0.0000000000
     25289      2351  TIP3      H2            -21.6967553767       29.0834255047       34.2689783372  TIP3      2191            0.0000000000
     25290      2352  TIP3      OH2           -29.4605723891       31.6240441501       26.9453793020  TIP3      2192            0.0000000000
     25291      2352  TIP3      H1            -29.6465597381       31.0384263408       26.1871567808  TIP3      2192            0.0000000000
     25292      2352  TIP3      H2            -28.7834619332       31.1013300673       27.4239259568  TIP3      2192            0.0000000000
     25293      2353  TIP3      OH2           -28.8077156867       33.7837445634       29.4808155289  TIP3      2193            0.0000000000
     25294      2353  TIP3      H1            -28.4153579302       34.2067506123       28.7032566490  TIP3      2193            0.0000000000
     25295      2353  TIP3      H2            -28.1796057980       34.0515094447       30.1832479276  TIP3      2193            0.0000000000
     25296      2354  TIP3      OH2           -29.0691631326       30.5576022771       30.6910384904  TIP3      2194            0.0000000000
     25297      2354  TIP3      H1            -28.5635390780       30.4447122400       29.8589965082  TIP3      2194            0.0000000000
     25298      2354  TIP3      H2            -28.5680127506       31.2393293963       31.1861251467  TIP3      2194            0.0000000000
     25299      2355  TIP3      OH2           -28.8809515829       33.9917776980       35.8123132382  TIP3      2195            0.0000000000
     25300      2355  TIP3      H1            -29.2780220958       34.8699192753       35.7110872104  TIP3      2195            0.0000000000
     25301      2355  TIP3      H2            -28.6789426398       33.7531848935       34.8884029102  TIP3      2195            0.0000000000
     25302      2356  TIP3      OH2           -21.5464964191       30.3681140670       23.0426436490  TIP3      2196            0.0000000000
     25303      2356  TIP3      H1            -21.3890133735       30.3791522303       24.0170308102  TIP3      2196            0.0000000000
     25304      2356  TIP3      H2            -21.1022337673       31.1862716406       22.7829438794  TIP3      2196            0.0000000000
     25305      2357  TIP3      OH2           -30.9780785760       30.7648123070       34.7041482270  TIP3      2197            0.0000000000
     25306      2357  TIP3      H1            -30.9364544414       31.6858962455       35.0027348143  TIP3      2197            0.0000000000
     25307      2357  TIP3      H2            -31.9390777537       30.6557044266       34.5424800369  TIP3      2197            0.0000000000
     25308      2358  TIP3      OH2           -30.4116858693       30.6564174193       24.6172369647  TIP3      2198            0.0000000000
     25309      2358  TIP3      H1            -30.5321996613       31.6138704105       24.6751280426  TIP3      2198            0.0000000000
     25310      2358  TIP3      H2            -31.2294375806       30.3060381270       24.9942522157  TIP3      2198            0.0000000000
     25311      2359  TIP3      OH2           -34.1091428555       32.9360835026       34.0867078252  TIP3      2199            0.0000000000
     25312      2359  TIP3      H1            -34.4094683690       33.0883182194       33.1805841742  TIP3      2199            0.0000000000
     25313      2359  TIP3      H2            -34.0661357985       31.9604281077       34.1288869675  TIP3      2199            0.0000000000
     25314      2360  TIP3      OH2           -19.5467697401       28.0168230011       36.4350834587  TIP3      2200            0.0000000000
     25315      2360  TIP3      H1            -19.9495887229       28.6248109200       35.7726560925  TIP3      2200            0.0000000000
     25316      2360  TIP3      H2            -19.9245908061       27.1715740398       36.0989423358  TIP3      2200            0.0000000000
     25317      2361  TIP3      OH2           -31.7944428978       33.9313680652       34.8359867314  TIP3      2201            0.0000000000
     25318      2361  TIP3      H1            -31.8049616072       33.7729773027       35.8079474323  TIP3      2201            0.0000000000
     25319      2361  TIP3      H2            -32.6988859848       33.6471719404       34.5655047284  TIP3      2201            0.0000000000
     25320      2362  TIP3      OH2           -29.4977195456       22.8460676177       30.4065934421  TIP3      2202            0.0000000000
     25321      2362  TIP3      H1            -30.4658112770       22.8667171586       30.2295273707  TIP3      2202            0.0000000000
     25322      2362  TIP3      H2            -29.2603005522       23.7867224866       30.5037313392  TIP3      2202            0.0000000000
     25323      2363  TIP3      OH2           -25.3445276531       22.2363601520       33.9354446504  TIP3      2203            0.0000000000
     25324      2363  TIP3      H1            -24.4670489802       22.2050262624       34.3776134210  TIP3      2203            0.0000000000
     25325      2363  TIP3      H2            -26.0253249608       22.0950167953       34.6045460322  TIP3      2203            0.0000000000
     25326      2364  TIP3      OH2           -21.2214756815       26.1055080210       35.5799815730  TIP3      2204            0.0000000000
     25327      2364  TIP3      H1            -21.6628272551       25.2884584014       35.3091077952  TIP3      2204            0.0000000000
     25328      2364  TIP3      H2            -21.9344479356       26.7592888068       35.3724087092  TIP3      2204            0.0000000000
     25329      2365  TIP3      OH2           -29.4961425569       28.0796178128       31.5660812212  TIP3      2205            0.0000000000
     25330      2365  TIP3      H1            -29.6280479741       28.2836361762       32.5166373902  TIP3      2205            0.0000000000
     25331      2365  TIP3      H2            -29.4634360656       28.9805402856       31.1628578405  TIP3      2205            0.0000000000
     25332      2366  TIP3      OH2           -29.2811321218       28.0717655403       26.6217026992  TIP3      2206            0.0000000000
     25333      2366  TIP3      H1            -30.2369069898       27.8699298371       26.5647542375  TIP3      2206            0.0000000000
     25334      2366  TIP3      H2            -29.0655803953       28.2729214533       25.6911867589  TIP3      2206            0.0000000000
     25335      2367  TIP3      OH2           -23.6892119355       28.0637088374       25.0715257785  TIP3      2207            0.0000000000
     25336      2367  TIP3      H1            -23.9649587948       29.0002503763       25.0817210525  TIP3      2207            0.0000000000
     25337      2367  TIP3      H2            -22.9130921499       28.0992879479       24.4759086959  TIP3      2207            0.0000000000
     25338      2368  TIP3      OH2           -25.5077316111       28.7374888415       37.2229731937  TIP3      2208            0.0000000000
     25339      2368  TIP3      H1            -25.8128910238       27.8211928883       37.4248848877  TIP3      2208            0.0000000000
     25340      2368  TIP3      H2            -24.5932222884       28.5359050986       36.9579019090  TIP3      2208            0.0000000000
     25341      2369  TIP3      OH2           -22.7111848771       28.0441259368       28.6506105980  TIP3      2209            0.0000000000
     25342      2369  TIP3      H1            -23.1022124942       28.8025227573       28.1837633523  TIP3      2209            0.0000000000
     25343      2369  TIP3      H2            -22.6643054900       27.3702335628       27.9456175368  TIP3      2209            0.0000000000
     25344      2370  TIP3      OH2           -32.2098973909       28.0259347800       33.2050267698  TIP3      2210            0.0000000000
     25345      2370  TIP3      H1            -31.3990876441       28.2335238905       33.6998917038  TIP3      2210            0.0000000000
     25346      2370  TIP3      H2            -32.1491245097       27.0746331496       33.0285720444  TIP3      2210            0.0000000000
     25347      2371  TIP3      OH2           -34.6300006609       24.1556546644       27.9104077883  TIP3      2211            0.0000000000
     25348      2371  TIP3      H1            -34.2764513491       24.3833650361       28.7840197778  TIP3      2211            0.0000000000
     25349      2371  TIP3      H2            -34.1622186962       23.3106951568       27.7524647342  TIP3      2211            0.0000000000
     25350      2372  TIP3      OH2           -33.6296861066       25.8033115882       23.1636980345  TIP3      2212            0.0000000000
     25351      2372  TIP3      H1            -33.2392148287       26.1137687213       22.3370370617  TIP3      2212            0.0000000000
     25352      2372  TIP3      H2            -34.5823157385       25.8643875139       22.9666585509  TIP3      2212            0.0000000000
     25353      2373  TIP3      OH2           -23.7521000563       29.9413703950       32.6281615559  TIP3      2213            0.0000000000
     25354      2373  TIP3      H1            -23.0075609424       29.4630936841       32.2158866966  TIP3      2213            0.0000000000
     25355      2373  TIP3      H2            -23.8567486810       29.3495334067       33.4049918336  TIP3      2213            0.0000000000
     25356      2374  TIP3      OH2           -26.3437128350       25.9773585104       27.3834931315  TIP3      2214            0.0000000000
     25357      2374  TIP3      H1            -27.0534882258       25.6040324432       26.8061115445  TIP3      2214            0.0000000000
     25358      2374  TIP3      H2            -26.2817826150       25.2692262605       28.0384518244  TIP3      2214            0.0000000000
     25359      2375  TIP3      OH2           -32.0487112700       27.5520443945       26.3531928724  TIP3      2215            0.0000000000
     25360      2375  TIP3      H1            -32.8815021453       27.7314855117       25.8659325454  TIP3      2215            0.0000000000
     25361      2375  TIP3      H2            -31.9714606142       26.5707301830       26.2769714837  TIP3      2215            0.0000000000
     25362      2376  TIP3      OH2           -28.2543387198       27.7638517064       23.8543764334  TIP3      2216            0.0000000000
     25363      2376  TIP3      H1            -27.3997262804       27.4715814722       24.2216987225  TIP3      2216            0.0000000000
     25364      2376  TIP3      H2            -28.6058161199       26.8939062738       23.5557609962  TIP3      2216            0.0000000000
     25365      2377  TIP3      OH2           -22.2478994092       24.8747306950       30.6817073551  TIP3      2217            0.0000000000
     25366      2377  TIP3      H1            -22.9634312516       24.8316919683       31.3581715391  TIP3      2217            0.0000000000
     25367      2377  TIP3      H2            -22.4674158088       24.0820618573       30.1688773846  TIP3      2217            0.0000000000
     25368      2378  TIP3      OH2           -31.7628223410       33.1363183960       37.4365248853  TIP3      2218            0.0000000000
     25369      2378  TIP3      H1            -31.1339118539       32.7581115107       38.0969751868  TIP3      2218            0.0000000000
     25370      2378  TIP3      H2            -32.6319676599       32.7837094671       37.7492174177  TIP3      2218            0.0000000000
     25371      2379  TIP3      OH2           -25.8897479796       28.0693233993       29.2421496719  TIP3      2219            0.0000000000
     25372      2379  TIP3      H1            -25.9810586386       27.3779045830       28.5549218274  TIP3      2219            0.0000000000
     25373      2379  TIP3      H2            -25.5552509654       27.5438016707       29.9801212722  TIP3      2219            0.0000000000
     25374      2380  TIP3      OH2           -31.2570874001       24.9168700705       26.1530443685  TIP3      2220            0.0000000000
     25375      2380  TIP3      H1            -31.6829321700       24.0625916613       25.9397413911  TIP3      2220            0.0000000000
     25376      2380  TIP3      H2            -30.3521825428       24.5998352172       25.9409259290  TIP3      2220            0.0000000000
     25377      2381  TIP3      OH2           -27.4792492262       26.4034361979       31.8944280474  TIP3      2221            0.0000000000
     25378      2381  TIP3      H1            -28.1689068047       27.0742297839       31.7122295313  TIP3      2221            0.0000000000
     25379      2381  TIP3      H2            -26.8842908780       26.8634973147       32.5071397542  TIP3      2221            0.0000000000
     25380      2382  TIP3      OH2           -26.3480777028       32.1856621321       23.9534865501  TIP3      2222            0.0000000000
     25381      2382  TIP3      H1            -27.0916317117       32.2264495989       23.3386994012  TIP3      2222            0.0000000000
     25382      2382  TIP3      H2            -26.7214611168       32.6359680949       24.7361370254  TIP3      2222            0.0000000000
     25383      2383  TIP3      OH2           -19.2075805486       32.6697567790       32.1914584325  TIP3      2223            0.0000000000
     25384      2383  TIP3      H1            -18.7534220399       33.0887065087       31.4172483580  TIP3      2223            0.0000000000
     25385      2383  TIP3      H2            -19.9469070042       32.1940586028       31.7556692857  TIP3      2223            0.0000000000
     25386      2384  TIP3      OH2           -25.4379420294       33.0117566247       35.2184093344  TIP3      2224            0.0000000000
     25387      2384  TIP3      H1            -25.1425016110       32.5020941986       35.9855859281  TIP3      2224            0.0000000000
     25388      2384  TIP3      H2            -25.1153665914       33.9054058341       35.3878146415  TIP3      2224            0.0000000000
     25389      2385  TIP3      OH2           -21.7575373578       27.6762021109       23.3109566599  TIP3      2225            0.0000000000
     25390      2385  TIP3      H1            -21.0259824235       27.3457379882       23.8793097451  TIP3      2225            0.0000000000
     25391      2385  TIP3      H2            -21.4365632075       28.5717830704       23.0627647432  TIP3      2225            0.0000000000
     25392      2386  TIP3      OH2           -31.5522025237       32.1799646600       28.9299304169  TIP3      2226            0.0000000000
     25393      2386  TIP3      H1            -30.6545217608       32.3803340133       28.5855399462  TIP3      2226            0.0000000000
     25394      2386  TIP3      H2            -31.3340439319       31.5783343488       29.6679638406  TIP3      2226            0.0000000000
     25395      2387  TIP3      OH2           -33.8180179141       30.2209736930       34.5150248164  TIP3      2227            0.0000000000
     25396      2387  TIP3      H1            -33.7858151794       29.8854193009       35.4238538428  TIP3      2227            0.0000000000
     25397      2387  TIP3      H2            -34.5828169158       29.7372022904       34.1592937614  TIP3      2227            0.0000000000
     25398      2388  TIP3      OH2           -27.8892784750       30.0197475629       36.5965286905  TIP3      2228            0.0000000000
     25399      2388  TIP3      H1            -28.1048657777       29.2319907873       36.0818188566  TIP3      2228            0.0000000000
     25400      2388  TIP3      H2            -26.9360944255       29.8431108182       36.7854877561  TIP3      2228            0.0000000000
     25401      2389  TIP3      OH2           -17.8495543685       28.1090671921       23.2248117432  TIP3      2229            0.0000000000
     25402      2389  TIP3      H1            -17.3022595806       27.8165400441       22.4794149589  TIP3      2229            0.0000000000
     25403      2389  TIP3      H2            -17.2846850957       28.8451301816       23.5270762710  TIP3      2229            0.0000000000
     25404      2390  TIP3      OH2           -16.3680603423       33.7301552526       35.9944801856  TIP3      2230            0.0000000000
     25405      2390  TIP3      H1            -17.1572287515       34.3170072981       35.9726497774  TIP3      2230            0.0000000000
     25406      2390  TIP3      H2            -16.3054209352       33.4330033003       35.0469691713  TIP3      2230            0.0000000000
     25407      2391  TIP3      OH2           -21.3135953440       31.5916629619       30.8852314741  TIP3      2231            0.0000000000
     25408      2391  TIP3      H1            -22.2407643603       31.3140457397       30.8399823607  TIP3      2231            0.0000000000
     25409      2391  TIP3      H2            -20.8955376623       30.9564157065       30.2759324045  TIP3      2231            0.0000000000
     25410      2392  TIP3      OH2           -27.2259924816       33.1365945570       26.3132746725  TIP3      2232            0.0000000000
     25411      2392  TIP3      H1            -27.4856697568       34.0854112692       26.3710856476  TIP3      2232            0.0000000000
     25412      2392  TIP3      H2            -27.8512052531       32.6699937443       26.8901941700  TIP3      2232            0.0000000000
     25413      2393  TIP3      OH2           -24.0215761233       33.2680256555       32.3853329724  TIP3      2233            0.0000000000
     25414      2393  TIP3      H1            -24.0106642673       32.9216434172       33.2976888013  TIP3      2233            0.0000000000
     25415      2393  TIP3      H2            -23.0769713964       33.2921576316       32.1596518270  TIP3      2233            0.0000000000
     25416      2394  TIP3      OH2           -33.0461691338       25.5011534965       33.9455313832  TIP3      2234            0.0000000000
     25417      2394  TIP3      H1            -33.7536161017       26.0743647806       33.5920168140  TIP3      2234            0.0000000000
     25418      2394  TIP3      H2            -33.0198227999       25.8267950803       34.8631641341  TIP3      2234            0.0000000000
     25419      2395  TIP3      OH2           -20.4118300640       32.9486317313       23.8901482039  TIP3      2235            0.0000000000
     25420      2395  TIP3      H1            -20.6795278346       32.1851366003       24.4328297516  TIP3      2235            0.0000000000
     25421      2395  TIP3      H2            -19.4340616723       32.8336790381       23.8934754143  TIP3      2235            0.0000000000
     25422      2396  TIP3      OH2           -24.1925418039       24.8364684990       32.8843209695  TIP3      2236            0.0000000000
     25423      2396  TIP3      H1            -23.8923108669       25.5116816116       33.5143390159  TIP3      2236            0.0000000000
     25424      2396  TIP3      H2            -24.1233614482       24.0122619894       33.4031939990  TIP3      2236            0.0000000000
     25425      2397  TIP3      OH2           -22.9738848666       24.8193628949       24.8151740337  TIP3      2237            0.0000000000
     25426      2397  TIP3      H1            -23.0322286960       25.5550752821       24.1947238257  TIP3      2237            0.0000000000
     25427      2397  TIP3      H2            -22.5348568515       25.2430053006       25.5887085113  TIP3      2237            0.0000000000
     25428      2398  TIP3      OH2           -25.6916279617       26.3088785938       24.5191812246  TIP3      2238            0.0000000000
     25429      2398  TIP3      H1            -24.9781922612       26.9611563647       24.7345732713  TIP3      2238            0.0000000000
     25430      2398  TIP3      H2            -25.9331768386       25.9756625741       25.4004266633  TIP3      2238            0.0000000000
     25431      2399  TIP3      OH2           -26.4070035725       26.9727673478       34.4732909673  TIP3      2239            0.0000000000
     25432      2399  TIP3      H1            -26.2331900029       27.8990669835       34.7264615097  TIP3      2239            0.0000000000
     25433      2399  TIP3      H2            -25.5148429219       26.7801379161       34.1253968527  TIP3      2239            0.0000000000
     25434      2400  TIP3      OH2           -24.8884881616       23.5062200376       26.2799439844  TIP3      2240            0.0000000000
     25435      2400  TIP3      H1            -25.7817859977       23.8778666475       26.1309799468  TIP3      2240            0.0000000000
     25436      2400  TIP3      H2            -24.2817857304       24.1154125937       25.8018529782  TIP3      2240            0.0000000000
     25437      2401  TIP3      OH2           -28.7250107142       25.1871033384       23.1395787350  TIP3      2241            0.0000000000
     25438      2401  TIP3      H1            -29.6082075800       24.8053853234       23.2474857820  TIP3      2241            0.0000000000
     25439      2401  TIP3      H2            -28.2895568496       24.8224360883       23.9445631079  TIP3      2241            0.0000000000
     25440      2402  TIP3      OH2           -19.1142416336       24.4602819238       35.1434025452  TIP3      2242            0.0000000000
     25441      2402  TIP3      H1            -19.8129655796       25.0791386615       35.4598065489  TIP3      2242            0.0000000000
     25442      2402  TIP3      H2            -18.6036644779       25.0413361132       34.5386164417  TIP3      2242            0.0000000000
     25443      2403  TIP3      OH2           -20.3548801135       29.1913341321       29.0571722832  TIP3      2243            0.0000000000
     25444      2403  TIP3      H1            -21.2171234956       28.7269421047       29.1063724963  TIP3      2243            0.0000000000
     25445      2403  TIP3      H2            -19.8400004850       28.6772095773       29.7178234244  TIP3      2243            0.0000000000
     25446      2404  TIP3      OH2           -30.9154465933       34.1150517129       21.6784117782  TIP3      2244            0.0000000000
     25447      2404  TIP3      H1            -30.6006394665       34.5875577590       22.4601908740  TIP3      2244            0.0000000000
     25448      2404  TIP3      H2            -30.0357874447       33.9017664310       21.2683997091  TIP3      2244            0.0000000000
     25449      2405  TIP3      OH2           -32.1362522284       22.6687867258       30.0082449612  TIP3      2245            0.0000000000
     25450      2405  TIP3      H1            -32.2392803889       22.4477902763       29.0437028141  TIP3      2245            0.0000000000
     25451      2405  TIP3      H2            -32.4583129059       21.8029168094       30.3569606066  TIP3      2245            0.0000000000
     25452      2406  TIP3      OH2           -34.3430722776       32.3288646736       37.6934173407  TIP3      2246            0.0000000000
     25453      2406  TIP3      H1            -34.4018830221       31.4658151787       37.2540018849  TIP3      2246            0.0000000000
     25454      2406  TIP3      H2            -34.8880112237       32.9342098335       37.1716501589  TIP3      2246            0.0000000000
     25455      2407  TIP3      OH2           -28.7852119225       33.0694083247       20.5208374238  TIP3      2247            0.0000000000
     25456      2407  TIP3      H1            -28.3430161941       32.3622417323       21.0311484641  TIP3      2247            0.0000000000
     25457      2407  TIP3      H2            -28.2117220434       33.2261020665       19.7638763062  TIP3      2247            0.0000000000
     25458      2408  TIP3      OH2           -27.1357900243       32.3495575684       37.4876833779  TIP3      2248            0.0000000000
     25459      2408  TIP3      H1            -27.0859752854       33.0191171147       36.7811716678  TIP3      2248            0.0000000000
     25460      2408  TIP3      H2            -27.5988800563       31.6188532730       37.0206507685  TIP3      2248            0.0000000000
     25461      2409  TIP3      OH2           -21.9851073214       32.9496231399       34.9952433848  TIP3      2249            0.0000000000
     25462      2409  TIP3      H1            -21.0277518606       33.1328233982       35.0727778996  TIP3      2249            0.0000000000
     25463      2409  TIP3      H2            -22.3741780316       33.7423832306       35.4117372704  TIP3      2249            0.0000000000
     25464      2410  TIP3      OH2           -33.0768962085       29.9080311995       37.3532998794  TIP3      2250            0.0000000000
     25465      2410  TIP3      H1            -32.7381882803       29.0504117199       37.6290511961  TIP3      2250            0.0000000000
     25466      2410  TIP3      H2            -32.4439419932       30.4950456696       37.8115582685  TIP3      2250            0.0000000000
     25467      2411  TIP3      OH2           -28.4978234748       31.1770551850       22.5085584814  TIP3      2251            0.0000000000
     25468      2411  TIP3      H1            -28.9481505769       30.7171264155       23.2407010242  TIP3      2251            0.0000000000
     25469      2411  TIP3      H2            -28.0697972387       30.4412882929       22.0208082164  TIP3      2251            0.0000000000
     25470      2412  TIP3      OH2           -29.4348644408       28.6894608593       34.1216091352  TIP3      2252            0.0000000000
     25471      2412  TIP3      H1            -29.8847501398       29.3812645344       34.6640450519  TIP3      2252            0.0000000000
     25472      2412  TIP3      H2            -28.6389515037       29.1934542232       33.8290486582  TIP3      2252            0.0000000000
     25473      2413  TIP3      OH2           -27.3664913221       29.3049042470       20.8905862362  TIP3      2253            0.0000000000
     25474      2413  TIP3      H1            -27.4890163500       28.5608756100       20.2878012756  TIP3      2253            0.0000000000
     25475      2413  TIP3      H2            -26.4032536812       29.2598600494       21.0551329613  TIP3      2253            0.0000000000
     25476      2414  TIP3      OH2           -23.8043999611       31.8086988650       38.3081649479  TIP3      2254            0.0000000000
     25477      2414  TIP3      H1            -23.1979172024       31.1344011420       37.9621629497  TIP3      2254            0.0000000000
     25478      2414  TIP3      H2            -24.1492512348       31.3480964069       39.0948560504  TIP3      2254            0.0000000000
     25479      2415  TIP3      OH2           -29.3119631574       26.2763726972       35.2128395787  TIP3      2255            0.0000000000
     25480      2415  TIP3      H1            -28.4582501531       25.8792677423       34.9419409462  TIP3      2255            0.0000000000
     25481      2415  TIP3      H2            -29.2523450771       27.1432113216       34.7677106908  TIP3      2255            0.0000000000
     25482      2416  TIP3      OH2           -28.1948268673       24.3624723338       33.3569911508  TIP3      2256            0.0000000000
     25483      2416  TIP3      H1            -27.8544449247       25.0260369959       32.7199567691  TIP3      2256            0.0000000000
     25484      2416  TIP3      H2            -29.1588947143       24.4111016731       33.2189997292  TIP3      2256            0.0000000000
     25485      2417  TIP3      OH2           -26.6932335802       30.1892608395       33.6527697397  TIP3      2257            0.0000000000
     25486      2417  TIP3      H1            -25.8400765723       30.5590060092       33.3675696555  TIP3      2257            0.0000000000
     25487      2417  TIP3      H2            -27.2734144321       30.9275007787       33.3951214993  TIP3      2257            0.0000000000
     25488      2418  TIP3      OH2           -22.5032352278       28.1408846008       38.4545647687  TIP3      2258            0.0000000000
     25489      2418  TIP3      H1            -22.6295102514       27.8316368698       37.5379728088  TIP3      2258            0.0000000000
     25490      2418  TIP3      H2            -21.6001131530       28.4945317495       38.4084590794  TIP3      2258            0.0000000000
     25491      2419  TIP3      OH2           -20.5002658900       30.8336524732       36.7550477064  TIP3      2259            0.0000000000
     25492      2419  TIP3      H1            -21.0402614602       31.5262959521       36.3396742705  TIP3      2259            0.0000000000
     25493      2419  TIP3      H2            -19.5744344666       31.0230369787       36.4494278170  TIP3      2259            0.0000000000
     25494      2420  TIP3      OH2           -30.1422962580       27.3495823757       37.6564836815  TIP3      2260            0.0000000000
     25495      2420  TIP3      H1            -30.9551748684       26.7875960240       37.6439857768  TIP3      2260            0.0000000000
     25496      2420  TIP3      H2            -29.8046562088       27.0688259273       36.7812136471  TIP3      2260            0.0000000000
     25497      2421  TIP3      OH2           -28.2220987016       21.9735707796       34.3875455967  TIP3      2261            0.0000000000
     25498      2421  TIP3      H1            -28.0178374338       22.9081049224       34.1104557656  TIP3      2261            0.0000000000
     25499      2421  TIP3      H2            -28.6454445752       21.6538748912       33.5695737008  TIP3      2261            0.0000000000
     25500      2422  TIP3      OH2           -26.3973569076       26.4090399666       37.9294641596  TIP3      2262            0.0000000000
     25501      2422  TIP3      H1            -27.1056130238       25.9331805307       38.3924490072  TIP3      2262            0.0000000000
     25502      2422  TIP3      H2            -26.4134495285       25.9987735820       37.0525931719  TIP3      2262            0.0000000000
     25503      2423  TIP3      OH2           -23.6986361179       25.7692847959       37.0579273963  TIP3      2263            0.0000000000
     25504      2423  TIP3      H1            -23.7085980344       25.8648678432       36.0933457041  TIP3      2263            0.0000000000
     25505      2423  TIP3      H2            -23.0599074532       25.0640729945       37.2427525830  TIP3      2263            0.0000000000
     25506      2424  TIP3      OH2           -21.8128720938       24.1471971198       38.3612037051  TIP3      2264            0.0000000000
     25507      2424  TIP3      H1            -21.8176116073       23.2825186296       38.8090131207  TIP3      2264            0.0000000000
     25508      2424  TIP3      H2            -22.1092684110       24.7848832928       39.0516955881  TIP3      2264            0.0000000000
     25509      2425  TIP3      OH2           -32.0272838161       25.4775673989       37.7610603481  TIP3      2265            0.0000000000
     25510      2425  TIP3      H1            -31.9327869337       24.6025478322       37.3405872064  TIP3      2265            0.0000000000
     25511      2425  TIP3      H2            -32.3553649371       25.1911387223       38.6495752329  TIP3      2265            0.0000000000
     25512      2426  TIP3      OH2           -27.6404132268       21.2281523751       36.8966287704  TIP3      2266            0.0000000000
     25513      2426  TIP3      H1            -27.0211722741       20.4813212999       36.7516337073  TIP3      2266            0.0000000000
     25514      2426  TIP3      H2            -27.9063448459       21.4265183599       35.9641732201  TIP3      2266            0.0000000000
     25515      2427  TIP3      OH2           -27.1463180578       22.8141235458       38.9797136422  TIP3      2267            0.0000000000
     25516      2427  TIP3      H1            -27.2029601546       22.1512299080       38.2477493550  TIP3      2267            0.0000000000
     25517      2427  TIP3      H2            -27.6751943820       23.5463871617       38.6177084373  TIP3      2267            0.0000000000
     25518      2428  TIP3      OH2           -33.5091516689       34.1401635293       20.8467482275  TIP3      2268            0.0000000000
     25519      2428  TIP3      H1            -32.5500060036       33.9423129714       20.8474109445  TIP3      2268            0.0000000000
     25520      2428  TIP3      H2            -33.8179132454       33.6859594561       20.0490188519  TIP3      2268            0.0000000000
     25521      2429  TIP3      OH2           -19.0834154269       34.6834940654       38.0545539791  TIP3      2269            0.0000000000
     25522      2429  TIP3      H1            -19.3373877104       34.2235132448       38.8832210806  TIP3      2269            0.0000000000
     25523      2429  TIP3      H2            -18.1958923745       34.9593225217       38.2888591263  TIP3      2269            0.0000000000
     25524      2430  TIP3      OH2           -17.8149866410       32.6492542343       24.5187085415  TIP3      2270            0.0000000000
     25525      2430  TIP3      H1            -16.9643523982       32.5821393923       24.0490411272  TIP3      2270            0.0000000000
     25526      2430  TIP3      H2            -17.6206248357       32.0933703763       25.3210875474  TIP3      2270            0.0000000000
     25527      2431  TIP3      OH2           -17.2062835377       31.2710794716       26.7107388547  TIP3      2271            0.0000000000
     25528      2431  TIP3      H1            -17.6889246829       30.4256075867       26.5962153396  TIP3      2271            0.0000000000
     25529      2431  TIP3      H2            -16.5306856112       30.9887223749       27.3715188269  TIP3      2271            0.0000000000
     25530      2432  TIP3      OH2           -17.5286411964       33.6716312951       30.4603489123  TIP3      2272            0.0000000000
     25531      2432  TIP3      H1            -16.8869839538       32.9173208195       30.4889750645  TIP3      2272            0.0000000000
     25532      2432  TIP3      H2            -16.9867141650       34.3644748220       30.8671443192  TIP3      2272            0.0000000000
     25533      2433  TIP3      OH2           -18.7991784026       29.0156704547       26.8999227575  TIP3      2273            0.0000000000
     25534      2433  TIP3      H1            -19.3039539925       28.3078267457       26.4748764775  TIP3      2273            0.0000000000
     25535      2433  TIP3      H2            -19.2466952651       29.0914476207       27.7750959438  TIP3      2273            0.0000000000
     25536      2434  TIP3      OH2           -34.2814431276       31.3288182895       30.5142951548  TIP3      2274            0.0000000000
     25537      2434  TIP3      H1            -34.4187319719       31.2686290005       29.5514880221  TIP3      2274            0.0000000000
     25538      2434  TIP3      H2            -33.3127835360       31.2670007018       30.6351927200  TIP3      2274            0.0000000000
     25539      2435  TIP3      OH2           -18.0122964012       31.4915416530       36.0388807703  TIP3      2275            0.0000000000
     25540      2435  TIP3      H1            -17.3428161386       30.7827252262       36.0843983240  TIP3      2275            0.0000000000
     25541      2435  TIP3      H2            -17.4780764642       32.2978207612       36.1315750691  TIP3      2275            0.0000000000
     25542      2436  TIP3      OH2           -16.8469697968       28.9079291492       36.6228641371  TIP3      2276            0.0000000000
     25543      2436  TIP3      H1            -17.7293750742       28.5101998905       36.7396180306  TIP3      2276            0.0000000000
     25544      2436  TIP3      H2            -16.2923183956       28.1234493435       36.8359468214  TIP3      2276            0.0000000000
     25545      2437  TIP3      OH2           -19.8326545003       26.7258855722       24.9596417623  TIP3      2277            0.0000000000
     25546      2437  TIP3      H1            -19.5587178595       25.8016417372       25.2044412064  TIP3      2277            0.0000000000
     25547      2437  TIP3      H2            -19.0555261563       26.9531195475       24.3963754585  TIP3      2277            0.0000000000
     25548      2438  TIP3      OH2           -19.2356034944       27.1809471657       30.5736223963  TIP3      2278            0.0000000000
     25549      2438  TIP3      H1            -18.3618464544       26.7650046382       30.4088517547  TIP3      2278            0.0000000000
     25550      2438  TIP3      H2            -19.1741815521       27.3622779692       31.5356800664  TIP3      2278            0.0000000000
     25551      2439  TIP3      OH2           -18.8190913381       28.1134495369       33.2207804507  TIP3      2279            0.0000000000
     25552      2439  TIP3      H1            -19.6427843901       28.5525494696       33.5365418573  TIP3      2279            0.0000000000
     25553      2439  TIP3      H2            -18.2577357908       28.9122837720       33.1056628810  TIP3      2279            0.0000000000
     25554      2440  TIP3      OH2           -34.3130293481       26.2393044982       36.7510420733  TIP3      2280            0.0000000000
     25555      2440  TIP3      H1            -33.4098700142       26.0472100352       37.0966343416  TIP3      2280            0.0000000000
     25556      2440  TIP3      H2            -34.8139853029       25.5254390148       37.2022114479  TIP3      2280            0.0000000000
     25557      2441  TIP3      OH2           -15.9215769372       22.2644877892       38.4728767513  TIP3      2281            0.0000000000
     25558      2441  TIP3      H1            -16.0706732989       21.5079044214       37.8939089707  TIP3      2281            0.0000000000
     25559      2441  TIP3      H2            -16.2546090801       22.9954269651       37.9162147463  TIP3      2281            0.0000000000
     25560      2442  TIP3      OH2           -19.0400400514       24.2338846946       25.2637737808  TIP3      2282            0.0000000000
     25561      2442  TIP3      H1            -18.4457970570       23.9664809585       25.9936961226  TIP3      2282            0.0000000000
     25562      2442  TIP3      H2            -19.3447380048       23.3491717543       24.9754072665  TIP3      2282            0.0000000000
     25563      2443  TIP3      OH2           -33.4805560393       24.9746905737       30.2957989475  TIP3      2283            0.0000000000
     25564      2443  TIP3      H1            -33.1210123373       24.0685883553       30.2228113084  TIP3      2283            0.0000000000
     25565      2443  TIP3      H2            -32.6618026416       25.5081504002       30.3778907787  TIP3      2283            0.0000000000
     25566      2444  TIP3      OH2           -34.6582922601       28.3937486358       30.6779956707  TIP3      2284            0.0000000000
     25567      2444  TIP3      H1            -34.2139725100       28.1268461266       29.8424665585  TIP3      2284            0.0000000000
     25568      2444  TIP3      H2            -34.4224174443       29.3433122509       30.7159463794  TIP3      2284            0.0000000000
     25569      2445  TIP3      OH2           -16.7706733368       24.0310812144       36.8105388531  TIP3      2285            0.0000000000
     25570      2445  TIP3      H1            -17.4605374523       24.4254877544       37.3937571218  TIP3      2285            0.0000000000
     25571      2445  TIP3      H2            -17.2889003762       23.8085298347       36.0114329614  TIP3      2285            0.0000000000
     25572      2446  TIP3      OH2           -17.2384397360       23.7682468533       21.1548440790  TIP3      2286            0.0000000000
     25573      2446  TIP3      H1            -16.4743362122       23.2996821526       21.5286598791  TIP3      2286            0.0000000000
     25574      2446  TIP3      H2            -17.3470822108       24.4305039892       21.8605855154  TIP3      2286            0.0000000000
     25575      2447  TIP3      OH2           -34.3385611264       23.5692161373       24.5006420552  TIP3      2287            0.0000000000
     25576      2447  TIP3      H1            -35.2868832332       23.6814594103       24.7042897977  TIP3      2287            0.0000000000
     25577      2447  TIP3      H2            -34.0619951577       24.4562317674       24.1903251499  TIP3      2287            0.0000000000
     25578      2448  TIP3      OH2            34.5220180558       23.0833884531       32.9689681209  TIP3      2288            0.0000000000
     25579      2448  TIP3      H1             33.7379108076       22.6443661020       33.3558611883  TIP3      2288            0.0000000000
     25580      2448  TIP3      H2             34.1157231807       23.6356964612       32.2676392735  TIP3      2288            0.0000000000
     25581      2449  TIP3      OH2           -17.9393813746       22.0419023263       34.9318263267  TIP3      2289            0.0000000000
     25582      2449  TIP3      H1            -18.5148393959       22.8401373656       34.8816900406  TIP3      2289            0.0000000000
     25583      2449  TIP3      H2            -18.4530085023       21.4439667734       34.3365899423  TIP3      2289            0.0000000000
     25584      2450  TIP3      OH2           -24.7878092889       22.7892242716       28.9725888540  TIP3      2290            0.0000000000
     25585      2450  TIP3      H1            -25.6937483901       22.4505276535       29.1718135519  TIP3      2290            0.0000000000
     25586      2450  TIP3      H2            -24.9435763248       23.3689969160       28.2051706741  TIP3      2290            0.0000000000
     25587      2451  TIP3      OH2           -19.1292810106       21.6835067351       28.8900605784  TIP3      2291            0.0000000000
     25588      2451  TIP3      H1            -18.5395662154       22.2297817175       28.3237339899  TIP3      2291            0.0000000000
     25589      2451  TIP3      H2            -20.0000827468       22.0438212794       28.6220377813  TIP3      2291            0.0000000000
     25590      2452  TIP3      OH2           -17.6325516188       22.9004806970       27.0781645585  TIP3      2292            0.0000000000
     25591      2452  TIP3      H1            -16.8567133719       22.4524786568       26.6894615252  TIP3      2292            0.0000000000
     25592      2452  TIP3      H2            -17.2122922810       23.5452892278       27.7078274570  TIP3      2292            0.0000000000
     25593      2453  TIP3      OH2           -31.3822822479       22.4109702920       25.2996633355  TIP3      2293            0.0000000000
     25594      2453  TIP3      H1            -32.3265885552       22.4045103767       25.5518954255  TIP3      2293            0.0000000000
     25595      2453  TIP3      H2            -31.1072104565       21.7067530570       25.8948760801  TIP3      2293            0.0000000000
     25596      2454  TIP3      OH2           -33.1443083201       22.4562405568       22.3581236117  TIP3      2294            0.0000000000
     25597      2454  TIP3      H1            -32.9889419669       23.2150960172       21.7944616536  TIP3      2294            0.0000000000
     25598      2454  TIP3      H2            -33.6043163194       22.8184755109       23.1484399883  TIP3      2294            0.0000000000
     25599      2455  TIP3      OH2           -27.3707315435       21.1239142981       26.7150559264  TIP3      2295            0.0000000000
     25600      2455  TIP3      H1            -27.5699272974       21.8574651761       26.0955743403  TIP3      2295            0.0000000000
     25601      2455  TIP3      H2            -27.3548074341       21.5984466514       27.5594251868  TIP3      2295            0.0000000000
     25602      2456  TIP3      OH2           -21.8167841168       22.1157854056       28.1407864345  TIP3      2296            0.0000000000
     25603      2456  TIP3      H1            -22.0662081420       22.8301253173       27.5393230882  TIP3      2296            0.0000000000
     25604      2456  TIP3      H2            -22.7046634865       21.7859484645       28.4062407342  TIP3      2296            0.0000000000
     25605      2457  TIP3      OH2           -20.1996641470       21.9771886005       24.2807538416  TIP3      2297            0.0000000000
     25606      2457  TIP3      H1            -20.8710508389       22.6652642142       24.1932088385  TIP3      2297            0.0000000000
     25607      2457  TIP3      H2            -20.8067769447       21.2463072440       24.5228753344  TIP3      2297            0.0000000000
     25608      2458  TIP3      OH2           -32.4567143594       22.7926250903       36.5089882645  TIP3      2298            0.0000000000
     25609      2458  TIP3      H1            -32.9417747736       21.9599061447       36.7198494130  TIP3      2298            0.0000000000
     25610      2458  TIP3      H2            -31.5505285198       22.5344898242       36.7669323322  TIP3      2298            0.0000000000
     25611      2459  TIP3      OH2           -30.1844735523       22.2688235289       38.1636032058  TIP3      2299            0.0000000000
     25612      2459  TIP3      H1            -29.2642353357       22.0223361141       37.9314483837  TIP3      2299            0.0000000000
     25613      2459  TIP3      H2            -30.5155455877       21.3993613314       38.4770681543  TIP3      2299            0.0000000000
     25614      2460  TIP3      OH2           -21.8599672264       21.4485396323       38.7551742298  TIP3      2300            0.0000000000
     25615      2460  TIP3      H1            -21.7890240746       20.8949969234       39.5576879873  TIP3      2300            0.0000000000
     25616      2460  TIP3      H2            -21.0496321386       21.2097614071       38.2674031217  TIP3      2300            0.0000000000
     25617      2461  TIP3      OH2            -4.6056044599       31.6494187751       26.5327460255  TIP3      2301            0.0000000000
     25618      2461  TIP3      H1             -4.9065528339       32.5804528529       26.6114658139  TIP3      2301            0.0000000000
     25619      2461  TIP3      H2             -5.0852106357       31.4035171835       25.7140112578  TIP3      2301            0.0000000000
     25620      2462  TIP3      OH2            -5.6801885612       30.5254223666       30.2663321695  TIP3      2302            0.0000000000
     25621      2462  TIP3      H1             -5.4745468018       30.1483754291       31.1404964333  TIP3      2302            0.0000000000
     25622      2462  TIP3      H2             -6.4137278600       29.9813336533       29.9522466730  TIP3      2302            0.0000000000
     25623      2463  TIP3      OH2           -13.9924747871       29.6847141675       31.9566763797  TIP3      2303            0.0000000000
     25624      2463  TIP3      H1            -13.4735140669       28.8934119866       32.2154556137  TIP3      2303            0.0000000000
     25625      2463  TIP3      H2            -13.2653958478       30.3226038633       31.8030692373  TIP3      2303            0.0000000000
     25626      2464  TIP3      OH2            -1.9644654997       32.9572250660       28.5000998303  TIP3      2304            0.0000000000
     25627      2464  TIP3      H1             -2.8180830131       33.4047823469       28.6587160050  TIP3      2304            0.0000000000
     25628      2464  TIP3      H2             -1.9068910940       32.9482991745       27.5254127594  TIP3      2304            0.0000000000
     25629      2465  TIP3      OH2           -12.1798839633       34.9687494436       30.1392232708  TIP3      2305            0.0000000000
     25630      2465  TIP3      H1            -12.5557173851       34.3495847633       30.8113281000  TIP3      2305            0.0000000000
     25631      2465  TIP3      H2            -11.4409633219       34.3804973704       29.8679381314  TIP3      2305            0.0000000000
     25632      2466  TIP3      OH2           -15.4703214272       29.0585812508       24.7618445585  TIP3      2306            0.0000000000
     25633      2466  TIP3      H1            -15.6147531388       29.3872353079       25.6589284764  TIP3      2306            0.0000000000
     25634      2466  TIP3      H2            -15.5250761624       28.1024833461       24.9456109238  TIP3      2306            0.0000000000
     25635      2467  TIP3      OH2           -15.1762274365       30.5768753355       28.1654159684  TIP3      2307            0.0000000000
     25636      2467  TIP3      H1            -14.9233419565       29.6456462378       28.3828221699  TIP3      2307            0.0000000000
     25637      2467  TIP3      H2            -14.2821279077       30.9886572693       28.1900915017  TIP3      2307            0.0000000000
     25638      2468  TIP3      OH2            -6.8099227688       34.1360955162       30.5186654846  TIP3      2308            0.0000000000
     25639      2468  TIP3      H1             -6.9655602515       33.2259462732       30.2419930687  TIP3      2308            0.0000000000
     25640      2468  TIP3      H2             -6.7581118711       33.9818334861       31.4885112545  TIP3      2308            0.0000000000
     25641      2469  TIP3      OH2             1.5821218396       24.2469366348       31.2317613987  TIP3      2309            0.0000000000
     25642      2469  TIP3      H1              1.5113376042       24.9078900072       31.9420992886  TIP3      2309            0.0000000000
     25643      2469  TIP3      H2              2.3830243747       24.5788297612       30.7748475089  TIP3      2309            0.0000000000
     25644      2470  TIP3      OH2            -3.8345076876       27.2810455069       31.3518715551  TIP3      2310            0.0000000000
     25645      2470  TIP3      H1             -4.6006276988       26.7108975833       31.5730364260  TIP3      2310            0.0000000000
     25646      2470  TIP3      H2             -3.9430212176       27.4308792005       30.3879734838  TIP3      2310            0.0000000000
     25647      2471  TIP3      OH2           -10.3031616502       25.1141191475       27.7788148404  TIP3      2311            0.0000000000
     25648      2471  TIP3      H1            -10.3374909014       26.0777046623       27.6103867500  TIP3      2311            0.0000000000
     25649      2471  TIP3      H2            -10.9257307117       24.7628420968       27.1002702993  TIP3      2311            0.0000000000
     25650      2472  TIP3      OH2            -3.5660967652       25.6776166655       26.6781628315  TIP3      2312            0.0000000000
     25651      2472  TIP3      H1             -2.6944184071       25.2533373355       26.7086806038  TIP3      2312            0.0000000000
     25652      2472  TIP3      H2             -3.3962500669       26.5295784021       26.2553903648  TIP3      2312            0.0000000000
     25653      2473  TIP3      OH2           -14.4902947200       27.9554418611       28.6420510629  TIP3      2313            0.0000000000
     25654      2473  TIP3      H1            -13.9942287495       27.5461441768       29.3676141835  TIP3      2313            0.0000000000
     25655      2473  TIP3      H2            -13.8492227711       27.7431846160       27.9293703006  TIP3      2313            0.0000000000
     25656      2474  TIP3      OH2            -9.3053220267       30.0546917307       28.2396774649  TIP3      2314            0.0000000000
     25657      2474  TIP3      H1             -8.4674007120       29.6534751478       28.5250293095  TIP3      2314            0.0000000000
     25658      2474  TIP3      H2             -9.6670276480       29.2606377759       27.7957950831  TIP3      2314            0.0000000000
     25659      2475  TIP3      OH2             1.5775814055       26.1284383847       33.7116609586  TIP3      2315            0.0000000000
     25660      2475  TIP3      H1              1.3721708149       26.8559966739       33.0885426179  TIP3      2315            0.0000000000
     25661      2475  TIP3      H2              1.6744758282       26.6696426866       34.5234550004  TIP3      2315            0.0000000000
     25662      2476  TIP3      OH2           -11.5768464661       24.6871623037       32.1064575279  TIP3      2316            0.0000000000
     25663      2476  TIP3      H1            -12.4882622293       25.0031807208       31.9567586170  TIP3      2316            0.0000000000
     25664      2476  TIP3      H2            -11.4475743718       24.8796126410       33.0619554870  TIP3      2316            0.0000000000
     25665      2477  TIP3      OH2            -4.8504117060       34.4265074414       26.3240370765  TIP3      2317            0.0000000000
     25666      2477  TIP3      H1             -4.9247200143       34.0444555155       25.4209642821  TIP3      2317            0.0000000000
     25667      2477  TIP3      H2             -5.3408813470       35.2681619451       26.1669780486  TIP3      2317            0.0000000000
     25668      2478  TIP3      OH2            -9.7641960982       32.0029733434       33.0138472391  TIP3      2318            0.0000000000
     25669      2478  TIP3      H1            -10.6023340251       32.2551080987       32.5742916667  TIP3      2318            0.0000000000
     25670      2478  TIP3      H2             -9.1985403780       32.7852223502       32.8688082460  TIP3      2318            0.0000000000
     25671      2479  TIP3      OH2            -1.3649259893       25.9566282539       28.9519999314  TIP3      2319            0.0000000000
     25672      2479  TIP3      H1             -1.4273639660       25.0378256401       29.2414620086  TIP3      2319            0.0000000000
     25673      2479  TIP3      H2             -0.4051168330       26.1282423379       28.9421964514  TIP3      2319            0.0000000000
     25674      2480  TIP3      OH2           -11.7626709207       27.0676007760       29.6780315114  TIP3      2320            0.0000000000
     25675      2480  TIP3      H1            -11.3070776520       26.7897499072       30.4846382012  TIP3      2320            0.0000000000
     25676      2480  TIP3      H2            -11.7153898730       26.3032057277       29.0932081542  TIP3      2320            0.0000000000
     25677      2481  TIP3      OH2           -11.0270247680       34.7364760601       33.2610750230  TIP3      2321            0.0000000000
     25678      2481  TIP3      H1            -11.0846309259       34.3780670338       32.3675757519  TIP3      2321            0.0000000000
     25679      2481  TIP3      H2            -11.8502860830       34.3219922000       33.6382851605  TIP3      2321            0.0000000000
     25680      2482  TIP3      OH2           -15.1821345314       33.9360236790       23.8555894599  TIP3      2322            0.0000000000
     25681      2482  TIP3      H1            -15.3978028629       34.2889880495       22.9652337908  TIP3      2322            0.0000000000
     25682      2482  TIP3      H2            -14.2555669495       33.6818397754       23.7638896697  TIP3      2322            0.0000000000
     25683      2483  TIP3      OH2            -1.0287048992       23.7860131918       31.9753996836  TIP3      2323            0.0000000000
     25684      2483  TIP3      H1             -1.8126732998       23.5121058683       31.4385610217  TIP3      2323            0.0000000000
     25685      2483  TIP3      H2             -0.2809204927       23.4899821240       31.4177071275  TIP3      2323            0.0000000000
     25686      2484  TIP3      OH2            -8.4694006540       22.1312047878       29.3901783496  TIP3      2324            0.0000000000
     25687      2484  TIP3      H1             -8.5227323263       21.1605768251       29.3485208564  TIP3      2324            0.0000000000
     25688      2484  TIP3      H2             -9.3293876960       22.3537987761       29.8209244732  TIP3      2324            0.0000000000
     25689      2485  TIP3      OH2            -0.9828854558       34.3402580147       34.0731820975  TIP3      2325            0.0000000000
     25690      2485  TIP3      H1             -0.3031484549       33.7347161417       34.4446636488  TIP3      2325            0.0000000000
     25691      2485  TIP3      H2             -1.0664998699       35.0873241690       34.6930412849  TIP3      2325            0.0000000000
     25692      2486  TIP3      OH2            -5.5983729087       30.4787986562       24.3128698783  TIP3      2326            0.0000000000
     25693      2486  TIP3      H1             -6.3962770552       30.7408219855       23.8175767157  TIP3      2326            0.0000000000
     25694      2486  TIP3      H2             -4.8709519444       30.6227758468       23.6649797769  TIP3      2326            0.0000000000
     25695      2487  TIP3      OH2             1.7830365301       29.9542755026       32.1957572518  TIP3      2327            0.0000000000
     25696      2487  TIP3      H1              1.7853224388       30.4132716307       33.0535794051  TIP3      2327            0.0000000000
     25697      2487  TIP3      H2              2.2753064366       30.6107274922       31.6613736239  TIP3      2327            0.0000000000
     25698      2488  TIP3      OH2            -1.9612843613       31.6067339298       25.6239655931  TIP3      2328            0.0000000000
     25699      2488  TIP3      H1             -2.8982864405       31.3496240541       25.5003751830  TIP3      2328            0.0000000000
     25700      2488  TIP3      H2             -1.5070361656       30.7417403380       25.6652062850  TIP3      2328            0.0000000000
     25701      2489  TIP3      OH2            -2.6400577590       29.0731780285       34.6313381688  TIP3      2329            0.0000000000
     25702      2489  TIP3      H1             -2.8948512190       29.8638677184       35.1354607463  TIP3      2329            0.0000000000
     25703      2489  TIP3      H2             -3.1533222521       29.2525197134       33.8186695306  TIP3      2329            0.0000000000
     25704      2490  TIP3      OH2           -10.5227418498       32.3145598974       27.2092394645  TIP3      2330            0.0000000000
     25705      2490  TIP3      H1            -10.7484936615       31.6545427969       26.5472509926  TIP3      2330            0.0000000000
     25706      2490  TIP3      H2            -10.1331642331       31.7054121197       27.8774564481  TIP3      2330            0.0000000000
     25707      2491  TIP3      OH2            -9.7472888581       33.7413566687       29.6789594331  TIP3      2331            0.0000000000
     25708      2491  TIP3      H1             -9.4860324013       33.9853357764       28.7840308279  TIP3      2331            0.0000000000
     25709      2491  TIP3      H2             -9.0487655634       34.1459095307       30.2074261491  TIP3      2331            0.0000000000
     25710      2492  TIP3      OH2           -10.0104565283       29.7403028688       31.0751164569  TIP3      2332            0.0000000000
     25711      2492  TIP3      H1             -9.9198682941       30.1408609095       30.1976023552  TIP3      2332            0.0000000000
     25712      2492  TIP3      H2             -9.8958144220       30.5037406528       31.6749048494  TIP3      2332            0.0000000000
     25713      2493  TIP3      OH2           -10.1183252962       34.0326845275       35.9190136314  TIP3      2333            0.0000000000
     25714      2493  TIP3      H1             -9.5648171944       34.8183353692       36.0243593332  TIP3      2333            0.0000000000
     25715      2493  TIP3      H2            -10.3465321418       34.0411178775       34.9729845542  TIP3      2333            0.0000000000
     25716      2494  TIP3      OH2            -3.1887279593       30.5592749361       23.1989321430  TIP3      2334            0.0000000000
     25717      2494  TIP3      H1             -2.7008341164       31.3972141349       23.3615064269  TIP3      2334            0.0000000000
     25718      2494  TIP3      H2             -3.2284396427       30.5408681513       22.2287388699  TIP3      2334            0.0000000000
     25719      2495  TIP3      OH2           -12.2229794784       30.7447688058       34.4004252519  TIP3      2335            0.0000000000
     25720      2495  TIP3      H1            -12.2755276942       31.5568559202       33.8487446866  TIP3      2335            0.0000000000
     25721      2495  TIP3      H2            -13.1382283000       30.6444238178       34.7115951087  TIP3      2335            0.0000000000
     25722      2496  TIP3      OH2             0.3217267475       22.2981562611       22.8936118911  TIP3      2336            0.0000000000
     25723      2496  TIP3      H1             -0.5218515579       22.6753789271       23.2164572582  TIP3      2336            0.0000000000
     25724      2496  TIP3      H2              0.5713101807       23.0038379549       22.2510511504  TIP3      2336            0.0000000000
     25725      2497  TIP3      OH2           -15.5306479573       32.7910281371       33.6375494497  TIP3      2337            0.0000000000
     25726      2497  TIP3      H1            -15.2677527950       32.5774407116       32.7285443646  TIP3      2337            0.0000000000
     25727      2497  TIP3      H2            -15.1581054372       32.0007396725       34.0905576362  TIP3      2337            0.0000000000
     25728      2498  TIP3      OH2            -1.0482684647       27.4129245750       37.0207418114  TIP3      2338            0.0000000000
     25729      2498  TIP3      H1             -1.2855050455       27.9344942790       36.2252515919  TIP3      2338            0.0000000000
     25730      2498  TIP3      H2             -1.0593402835       26.4826666928       36.7103662753  TIP3      2338            0.0000000000
     25731      2499  TIP3      OH2           -13.1469594748       33.7680418124       34.5621824546  TIP3      2339            0.0000000000
     25732      2499  TIP3      H1            -13.1682643577       33.8653692714       35.5289822412  TIP3      2339            0.0000000000
     25733      2499  TIP3      H2            -14.0918650247       33.7283683913       34.2951965499  TIP3      2339            0.0000000000
     25734      2500  TIP3      OH2           -10.7855589064       22.8857860725       30.4247966246  TIP3      2340            0.0000000000
     25735      2500  TIP3      H1            -11.7382227188       22.7003422509       30.2695160458  TIP3      2340            0.0000000000
     25736      2500  TIP3      H2            -10.8595161510       23.6903834139       30.9974536778  TIP3      2340            0.0000000000
     25737      2501  TIP3      OH2            -5.8201902336       22.4646611083       33.7695112464  TIP3      2341            0.0000000000
     25738      2501  TIP3      H1             -5.3458536722       21.9388723376       34.4580982699  TIP3      2341            0.0000000000
     25739      2501  TIP3      H2             -6.7514709734       22.3444311819       34.0414260136  TIP3      2341            0.0000000000
     25740      2502  TIP3      OH2            -2.8886303268       26.3940659365       34.7698557351  TIP3      2342            0.0000000000
     25741      2502  TIP3      H1             -3.4790242536       26.0567319652       35.4901455589  TIP3      2342            0.0000000000
     25742      2502  TIP3      H2             -3.3431495633       27.2529259588       34.6017401811  TIP3      2342            0.0000000000
     25743      2503  TIP3      OH2            -9.9852089168       27.3299470936       32.1610803835  TIP3      2343            0.0000000000
     25744      2503  TIP3      H1            -10.8923508880       27.3675347448       32.5440575948  TIP3      2343            0.0000000000
     25745      2503  TIP3      H2            -10.0354152007       28.1895396620       31.6696368572  TIP3      2343            0.0000000000
     25746      2504  TIP3      OH2           -10.1792059287       27.7214103068       26.8151145813  TIP3      2344            0.0000000000
     25747      2504  TIP3      H1            -11.1167503552       27.9719588523       26.7486267145  TIP3      2344            0.0000000000
     25748      2504  TIP3      H2             -9.9233987101       27.6846235288       25.8656136740  TIP3      2344            0.0000000000
     25749      2505  TIP3      OH2            -4.3263863075       28.3725723247       25.5660675220  TIP3      2345            0.0000000000
     25750      2505  TIP3      H1             -4.8292963943       29.1330858653       25.1889234142  TIP3      2345            0.0000000000
     25751      2505  TIP3      H2             -3.8988607311       28.0266493761       24.7502958860  TIP3      2345            0.0000000000
     25752      2506  TIP3      OH2            -5.8494648057       28.3878150456       36.9064288764  TIP3      2346            0.0000000000
     25753      2506  TIP3      H1             -6.3769528240       27.7165623805       37.4003922850  TIP3      2346            0.0000000000
     25754      2506  TIP3      H2             -4.9760061614       28.3157782101       37.3419922779  TIP3      2346            0.0000000000
     25755      2507  TIP3      OH2            -4.2106597384       27.8168488409       28.4793503599  TIP3      2347            0.0000000000
     25756      2507  TIP3      H1             -4.6015970061       28.1381744273       27.6444546656  TIP3      2347            0.0000000000
     25757      2507  TIP3      H2             -4.0370935942       26.8947664278       28.2028600989  TIP3      2347            0.0000000000
     25758      2508  TIP3      OH2           -12.5438979603       27.6155487032       33.0728742572  TIP3      2348            0.0000000000
     25759      2508  TIP3      H1            -12.4234706163       28.0824527401       33.9118321533  TIP3      2348            0.0000000000
     25760      2508  TIP3      H2            -13.2572370483       26.9807335848       33.2857158476  TIP3      2348            0.0000000000
     25761      2509  TIP3      OH2           -16.3990670978       24.7995408606       28.5349252582  TIP3      2349            0.0000000000
     25762      2509  TIP3      H1            -15.4357902161       24.7207800202       28.7162343898  TIP3      2349            0.0000000000
     25763      2509  TIP3      H2            -16.3732633295       25.4314692178       27.7677367944  TIP3      2349            0.0000000000
     25764      2510  TIP3      OH2           -15.2098791426       25.6523926952       22.7279184363  TIP3      2350            0.0000000000
     25765      2510  TIP3      H1            -14.6922849546       26.3996300487       22.4074254654  TIP3      2350            0.0000000000
     25766      2510  TIP3      H2            -15.2806222668       25.8523048289       23.6987581808  TIP3      2350            0.0000000000
     25767      2511  TIP3      OH2            -4.5532016543       29.5061775374       32.6619114639  TIP3      2351            0.0000000000
     25768      2511  TIP3      H1             -4.3206712167       28.6592147812       32.2243029594  TIP3      2351            0.0000000000
     25769      2511  TIP3      H2             -5.2388680611       29.2411707742       33.3035035281  TIP3      2351            0.0000000000
     25770      2512  TIP3      OH2            -7.6759700488       25.4407103184       27.4344250928  TIP3      2352            0.0000000000
     25771      2512  TIP3      H1             -8.6450476486       25.2834621803       27.5451788453  TIP3      2352            0.0000000000
     25772      2512  TIP3      H2             -7.3543695552       25.2342119242       28.3241181761  TIP3      2352            0.0000000000
     25773      2513  TIP3      OH2           -13.0034811463       26.9837078135       26.6536775132  TIP3      2353            0.0000000000
     25774      2513  TIP3      H1            -13.8745200948       26.6055233598       26.3746745975  TIP3      2353            0.0000000000
     25775      2513  TIP3      H2            -12.4591274222       26.1902094132       26.5244749329  TIP3      2353            0.0000000000
     25776      2514  TIP3      OH2            -9.5630683051       27.2630505576       24.1004681794  TIP3      2354            0.0000000000
     25777      2514  TIP3      H1             -8.7284572651       26.7761856632       24.2412933858  TIP3      2354            0.0000000000
     25778      2514  TIP3      H2             -9.7204048171       26.9871716019       23.1747857214  TIP3      2354            0.0000000000
     25779      2515  TIP3      OH2            -3.3592840504       24.2017078832       30.9031123580  TIP3      2355            0.0000000000
     25780      2515  TIP3      H1             -3.8258789802       24.0673153392       31.7543730057  TIP3      2355            0.0000000000
     25781      2515  TIP3      H2             -4.1316091833       24.2939872801       30.3191283690  TIP3      2355            0.0000000000
     25782      2516  TIP3      OH2           -12.8989150977       33.6879798008       37.4031837802  TIP3      2356            0.0000000000
     25783      2516  TIP3      H1            -12.0502559234       33.3647858968       37.7778555997  TIP3      2356            0.0000000000
     25784      2516  TIP3      H2            -13.4421288841       32.8936476131       37.6074750611  TIP3      2356            0.0000000000
     25785      2517  TIP3      OH2            -7.4907159945       28.1843713335       29.5013635836  TIP3      2357            0.0000000000
     25786      2517  TIP3      H1             -6.7239499461       27.6717729055       29.2105031309  TIP3      2357            0.0000000000
     25787      2517  TIP3      H2             -7.8183761439       27.6129025511       30.2225353154  TIP3      2357            0.0000000000
     25788      2518  TIP3      OH2           -12.1199024483       24.1547269048       26.0907739142  TIP3      2358            0.0000000000
     25789      2518  TIP3      H1            -12.8145622341       23.6990207074       26.6075723169  TIP3      2358            0.0000000000
     25790      2518  TIP3      H2            -11.9476738488       23.5286731639       25.3735234251  TIP3      2358            0.0000000000
     25791      2519  TIP3      OH2            -7.3203229967       26.6791414193       31.9862516214  TIP3      2359            0.0000000000
     25792      2519  TIP3      H1             -8.2844788666       26.8200288641       31.8877807180  TIP3      2359            0.0000000000
     25793      2519  TIP3      H2             -7.1526877778       27.2331422045       32.7687933509  TIP3      2359            0.0000000000
     25794      2520  TIP3      OH2            -7.9428615163       31.8804069119       23.5250606662  TIP3      2360            0.0000000000
     25795      2520  TIP3      H1             -8.3384309926       32.6938562025       23.1850353185  TIP3      2360            0.0000000000
     25796      2520  TIP3      H2             -7.5249807210       32.2549548138       24.3354653363  TIP3      2360            0.0000000000
     25797      2521  TIP3      OH2            -0.7255422189       31.3833660771       32.2740821253  TIP3      2361            0.0000000000
     25798      2521  TIP3      H1              0.2365773128       31.4730191434       32.3936448439  TIP3      2361            0.0000000000
     25799      2521  TIP3      H2             -0.9456488099       31.4431136412       33.2242647877  TIP3      2361            0.0000000000
     25800      2522  TIP3      OH2            -5.3235214460       32.9142116948       35.8919090729  TIP3      2362            0.0000000000
     25801      2522  TIP3      H1             -5.8453068042       32.4398568795       36.5643183446  TIP3      2362            0.0000000000
     25802      2522  TIP3      H2             -5.9123729577       32.9001191625       35.0968990315  TIP3      2362            0.0000000000
     25803      2523  TIP3      OH2            -2.7751074544       27.2728999687       23.5721736609  TIP3      2363            0.0000000000
     25804      2523  TIP3      H1             -1.9356999347       27.7263382056       23.6918023725  TIP3      2363            0.0000000000
     25805      2523  TIP3      H2             -3.1363843885       27.7353731254       22.7682784583  TIP3      2363            0.0000000000
     25806      2524  TIP3      OH2           -12.7089048470       31.4056101421       28.5203777314  TIP3      2364            0.0000000000
     25807      2524  TIP3      H1            -12.1855459036       32.0802209725       28.0593796246  TIP3      2364            0.0000000000
     25808      2524  TIP3      H2            -12.5468182034       31.6241214903       29.4623938735  TIP3      2364            0.0000000000
     25809      2525  TIP3      OH2            -5.2078295914       33.3259158859       23.9340970159  TIP3      2365            0.0000000000
     25810      2525  TIP3      H1             -4.9857106931       34.1886210066       23.5401466703  TIP3      2365            0.0000000000
     25811      2525  TIP3      H2             -5.6670806429       32.9595346789       23.1401190581  TIP3      2365            0.0000000000
     25812      2526  TIP3      OH2           -15.1834032737       30.5351742627       34.9877478280  TIP3      2366            0.0000000000
     25813      2526  TIP3      H1            -15.3895787793       29.9379854909       35.7320197238  TIP3      2366            0.0000000000
     25814      2526  TIP3      H2            -15.7697283360       30.1594743520       34.2995482841  TIP3      2366            0.0000000000
     25815      2527  TIP3      OH2            -8.3186801340       30.0984358770       36.8150765016  TIP3      2367            0.0000000000
     25816      2527  TIP3      H1             -8.8532819743       29.6838351203       36.1043373268  TIP3      2367            0.0000000000
     25817      2527  TIP3      H2             -7.4048849152       29.9346024363       36.5215124881  TIP3      2367            0.0000000000
     25818      2528  TIP3      OH2             1.2072093282       27.8851256613       23.7783451530  TIP3      2368            0.0000000000
     25819      2528  TIP3      H1              0.8045684744       27.9645011121       22.8880659752  TIP3      2368            0.0000000000
     25820      2528  TIP3      H2              1.8728279410       28.6103416983       23.6689446023  TIP3      2368            0.0000000000
     25821      2529  TIP3      OH2             2.5957359638       33.8394392663       36.3125880129  TIP3      2369            0.0000000000
     25822      2529  TIP3      H1              1.6853105393       34.1779762359       36.3984278766  TIP3      2369            0.0000000000
     25823      2529  TIP3      H2              2.4288846167       33.1742472114       35.6050892770  TIP3      2369            0.0000000000
     25824      2530  TIP3      OH2            -2.8188117060       31.0193117154       30.7536101023  TIP3      2370            0.0000000000
     25825      2530  TIP3      H1             -3.1289357502       31.0821082994       31.6724972345  TIP3      2370            0.0000000000
     25826      2530  TIP3      H2             -1.8733765745       31.2142251084       30.8753717044  TIP3      2370            0.0000000000
     25827      2531  TIP3      OH2            -8.1884800110       33.1641551420       25.9483249154  TIP3      2371            0.0000000000
     25828      2531  TIP3      H1             -8.4126524054       34.1025533784       26.0948115413  TIP3      2371            0.0000000000
     25829      2531  TIP3      H2             -8.7749955119       32.7103813072       26.5764388675  TIP3      2371            0.0000000000
     25830      2532  TIP3      OH2            -3.9790244839       33.3404087580       32.0642800067  TIP3      2372            0.0000000000
     25831      2532  TIP3      H1             -4.7481797353       33.7068670345       32.5386234802  TIP3      2372            0.0000000000
     25832      2532  TIP3      H2             -4.4181371711       32.7719939915       31.4069190725  TIP3      2372            0.0000000000
     25833      2533  TIP3      OH2           -14.6660429532       25.2134028051       34.3272648139  TIP3      2373            0.0000000000
     25834      2533  TIP3      H1            -14.7514885304       25.1999813800       33.3379282442  TIP3      2373            0.0000000000
     25835      2533  TIP3      H2            -14.1437348463       24.4156890197       34.4683267549  TIP3      2373            0.0000000000
     25836      2534  TIP3      OH2            -1.8340837208       33.1904332248       23.4882323789  TIP3      2374            0.0000000000
     25837      2534  TIP3      H1             -1.5077492034       32.9101756295       24.3636717012  TIP3      2374            0.0000000000
     25838      2534  TIP3      H2             -1.0424127084       33.5031264895       23.0286251064  TIP3      2374            0.0000000000
     25839      2535  TIP3      OH2            -4.6220383150       24.7557373302       33.3399670997  TIP3      2375            0.0000000000
     25840      2535  TIP3      H1             -4.1042605979       24.9136647578       34.1475600531  TIP3      2375            0.0000000000
     25841      2535  TIP3      H2             -5.1438738878       23.9571378029       33.6003380311  TIP3      2375            0.0000000000
     25842      2536  TIP3      OH2            -3.8076554609       24.5648948104       23.7018670405  TIP3      2376            0.0000000000
     25843      2536  TIP3      H1             -4.5183828693       24.9779606098       23.1875770428  TIP3      2376            0.0000000000
     25844      2536  TIP3      H2             -3.5071770646       25.3595908072       24.1715532684  TIP3      2376            0.0000000000
     25845      2537  TIP3      OH2            -6.9519566757       26.1883267473       24.8640919621  TIP3      2377            0.0000000000
     25846      2537  TIP3      H1             -6.5450867643       27.0438382054       25.0340331694  TIP3      2377            0.0000000000
     25847      2537  TIP3      H2             -7.3779471151       25.9863405329       25.7178326759  TIP3      2377            0.0000000000
     25848      2538  TIP3      OH2            -5.9944692579       27.4526706580       34.2257436459  TIP3      2378            0.0000000000
     25849      2538  TIP3      H1             -6.4313508863       27.7892798995       35.0420572405  TIP3      2378            0.0000000000
     25850      2538  TIP3      H2             -6.3876124924       26.5786305361       34.0429701906  TIP3      2378            0.0000000000
     25851      2539  TIP3      OH2            -6.0241255905       23.5558923429       25.9102473773  TIP3      2379            0.0000000000
     25852      2539  TIP3      H1             -6.5512569774       24.3577153541       26.0613841985  TIP3      2379            0.0000000000
     25853      2539  TIP3      H2             -5.2678526394       23.9317400672       25.4289851606  TIP3      2379            0.0000000000
     25854      2540  TIP3      OH2            -0.6206329538       25.1578984624       35.5737149621  TIP3      2380            0.0000000000
     25855      2540  TIP3      H1             -1.4514214327       25.5595841668       35.2327139686  TIP3      2380            0.0000000000
     25856      2540  TIP3      H2              0.0151091993       25.3903757526       34.8738544932  TIP3      2380            0.0000000000
     25857      2541  TIP3      OH2            -1.4839916903       28.6898690363       29.2344976791  TIP3      2381            0.0000000000
     25858      2541  TIP3      H1             -2.0738852351       27.9139372300       29.1992997907  TIP3      2381            0.0000000000
     25859      2541  TIP3      H2             -0.7138233313       28.2525906282       29.6504239971  TIP3      2381            0.0000000000
     25860      2542  TIP3      OH2           -12.3723624182      -35.0135627746       21.4501556107  TIP3      2382            0.0000000000
     25861      2542  TIP3      H1            -12.0633452664      -34.5418195644       22.2449651067  TIP3      2382            0.0000000000
     25862      2542  TIP3      H2            -11.5849697735      -35.0151488128       20.8837744200  TIP3      2382            0.0000000000
     25863      2543  TIP3      OH2           -13.9140499626       27.7180328541       20.7048030720  TIP3      2383            0.0000000000
     25864      2543  TIP3      H1            -13.6357977666       28.5521523942       21.0917716649  TIP3      2383            0.0000000000
     25865      2543  TIP3      H2            -14.6352114747       28.0306858710       20.1436865017  TIP3      2383            0.0000000000
     25866      2544  TIP3      OH2           -13.2490283528       22.1537822163       29.6604317876  TIP3      2384            0.0000000000
     25867      2544  TIP3      H1            -13.4563123232       22.0915662531       28.6975033743  TIP3      2384            0.0000000000
     25868      2544  TIP3      H2            -13.4762241943       21.2291411486       29.9030426681  TIP3      2384            0.0000000000
     25869      2545  TIP3      OH2           -15.0405886593       32.1744215905       37.8995500816  TIP3      2385            0.0000000000
     25870      2545  TIP3      H1            -15.3146991296       31.2485566556       37.7713341064  TIP3      2385            0.0000000000
     25871      2545  TIP3      H2            -15.4305866912       32.6330009005       37.1252183694  TIP3      2385            0.0000000000
     25872      2546  TIP3      OH2            -8.2677992068       32.6927602984       37.6813939989  TIP3      2386            0.0000000000
     25873      2546  TIP3      H1             -8.6761801743       33.2570689456       36.9960593887  TIP3      2386            0.0000000000
     25874      2546  TIP3      H2             -8.4771065562       31.7892582336       37.3665525450  TIP3      2386            0.0000000000
     25875      2547  TIP3      OH2            -6.0719845947       33.3415039115       21.4350956562  TIP3      2387            0.0000000000
     25876      2547  TIP3      H1             -5.4351130394       34.0285058507       21.1365583090  TIP3      2387            0.0000000000
     25877      2547  TIP3      H2             -6.1528536075       32.9042372972       20.5648634144  TIP3      2387            0.0000000000
     25878      2548  TIP3      OH2            -2.7730227548       32.3994803962       35.1653358836  TIP3      2388            0.0000000000
     25879      2548  TIP3      H1             -2.3481291335       33.1919326440       34.8024020542  TIP3      2388            0.0000000000
     25880      2548  TIP3      H2             -3.7325540205       32.6476616723       35.2183684580  TIP3      2388            0.0000000000
     25881      2549  TIP3      OH2           -13.9317790419       29.7054792656       37.5752688733  TIP3      2389            0.0000000000
     25882      2549  TIP3      H1            -13.0482883422       29.5164261545       37.2252784362  TIP3      2389            0.0000000000
     25883      2549  TIP3      H2            -13.7338604299       29.8668664365       38.5228534477  TIP3      2389            0.0000000000
     25884      2550  TIP3      OH2           -10.1300445746       29.1032649057       35.0418396707  TIP3      2390            0.0000000000
     25885      2550  TIP3      H1            -10.8719232272       29.7524864460       35.0096051667  TIP3      2390            0.0000000000
     25886      2550  TIP3      H2             -9.7817700590       29.1961971321       34.1288041552  TIP3      2390            0.0000000000
     25887      2551  TIP3      OH2            -5.3622246641       31.1222630822       38.3907777781  TIP3      2391            0.0000000000
     25888      2551  TIP3      H1             -4.7783079089       30.6685594077       37.7659304105  TIP3      2391            0.0000000000
     25889      2551  TIP3      H2             -5.8603829738       30.3810631174       38.7724749889  TIP3      2391            0.0000000000
     25890      2552  TIP3      OH2            -9.0136657614       26.9160183463       36.2253256886  TIP3      2392            0.0000000000
     25891      2552  TIP3      H1             -9.6109908834       26.1563354250       36.0182853684  TIP3      2392            0.0000000000
     25892      2552  TIP3      H2             -9.2924738556       27.5531019714       35.5416436318  TIP3      2392            0.0000000000
     25893      2553  TIP3      OH2            -8.8803002567       24.2252211235       33.0130393771  TIP3      2393            0.0000000000
     25894      2553  TIP3      H1             -8.4615310114       24.9565064371       32.5383759518  TIP3      2393            0.0000000000
     25895      2553  TIP3      H2             -9.6183241246       24.6558963076       33.4855274075  TIP3      2393            0.0000000000
     25896      2554  TIP3      OH2            -8.0347269906       30.1059124421       33.6238001909  TIP3      2394            0.0000000000
     25897      2554  TIP3      H1             -7.4525601882       30.7493158805       33.1771636870  TIP3      2394            0.0000000000
     25898      2554  TIP3      H2             -8.7618533240       30.7577618392       33.7698618281  TIP3      2394            0.0000000000
     25899      2555  TIP3      OH2            -3.4651026357       27.8786263799       38.4404518964  TIP3      2395            0.0000000000
     25900      2555  TIP3      H1             -3.1003723483       27.0623937292       38.0627849407  TIP3      2395            0.0000000000
     25901      2555  TIP3      H2             -2.6886822891       28.4672557999       38.3636816684  TIP3      2395            0.0000000000
     25902      2556  TIP3      OH2            -2.4035949798       30.6660978817       37.2769889629  TIP3      2396            0.0000000000
     25903      2556  TIP3      H1             -2.5474664657       31.3355565135       36.5681905642  TIP3      2396            0.0000000000
     25904      2556  TIP3      H2             -1.4626041890       30.4404087495       37.1463991167  TIP3      2396            0.0000000000
     25905      2557  TIP3      OH2           -11.1846983527       27.4995216813       38.0206446806  TIP3      2397            0.0000000000
     25906      2557  TIP3      H1            -11.9056663555       27.0463010429       37.5365301552  TIP3      2397            0.0000000000
     25907      2557  TIP3      H2            -10.4698790769       27.4906347296       37.3556037721  TIP3      2397            0.0000000000
     25908      2558  TIP3      OH2            -8.4870685741       21.8537005299       34.1010102580  TIP3      2398            0.0000000000
     25909      2558  TIP3      H1             -8.6299539125       22.7973429032       33.8273088574  TIP3      2398            0.0000000000
     25910      2558  TIP3      H2             -8.9340180658       21.4095862113       33.3570478614  TIP3      2398            0.0000000000
     25911      2559  TIP3      OH2            -7.1943350432       26.3647002424       37.9766022190  TIP3      2399            0.0000000000
     25912      2559  TIP3      H1             -7.8138854470       26.1994335513       38.7175443531  TIP3      2399            0.0000000000
     25913      2559  TIP3      H2             -7.8747865721       26.4187709150       37.2614309807  TIP3      2399            0.0000000000
     25914      2560  TIP3      OH2            -4.4145354339       25.3860411105       36.8475474263  TIP3      2400            0.0000000000
     25915      2560  TIP3      H1             -5.0852216102       25.9851395082       37.2279999881  TIP3      2400            0.0000000000
     25916      2560  TIP3      H2             -4.7044948190       24.5511675464       37.2456088302  TIP3      2400            0.0000000000
     25917      2561  TIP3      OH2            -2.3486806269       24.0063466521       39.2743819927  TIP3      2401            0.0000000000
     25918      2561  TIP3      H1             -2.8546644718       23.2191033084       38.9895545293  TIP3      2401            0.0000000000
     25919      2561  TIP3      H2             -3.0244602859       24.5580174350       39.7257378376  TIP3      2401            0.0000000000
     25920      2562  TIP3      OH2           -13.0819920287       25.6542896060       37.5528767712  TIP3      2402            0.0000000000
     25921      2562  TIP3      H1            -12.4102833850       25.2463148444       36.9529509581  TIP3      2402            0.0000000000
     25922      2562  TIP3      H2            -12.7599969921       25.4506195848       38.4581464098  TIP3      2402            0.0000000000
     25923      2563  TIP3      OH2            -9.0238406570       21.3564672133       36.6444937583  TIP3      2403            0.0000000000
     25924      2563  TIP3      H1             -8.0528421944       21.4180128713       36.7129059066  TIP3      2403            0.0000000000
     25925      2563  TIP3      H2             -9.0972221065       21.4984918796       35.6649245779  TIP3      2403            0.0000000000
     25926      2564  TIP3      OH2            -8.2677752711       23.1834019815       38.7524548224  TIP3      2404            0.0000000000
     25927      2564  TIP3      H1             -8.5879669446       22.8798309828       37.8924484352  TIP3      2404            0.0000000000
     25928      2564  TIP3      H2             -8.8222454807       23.9778657173       38.9069303740  TIP3      2404            0.0000000000
     25929      2565  TIP3      OH2           -15.1376879745       34.6770155485       21.2058908165  TIP3      2405            0.0000000000
     25930      2565  TIP3      H1            -14.1590898290       34.6850245021       21.2005504845  TIP3      2405            0.0000000000
     25931      2565  TIP3      H2            -15.3376699223       34.2334976211       20.3767465786  TIP3      2405            0.0000000000
     25932      2566  TIP3      OH2            -0.1257260810       34.1828377010       38.6213279513  TIP3      2406            0.0000000000
     25933      2566  TIP3      H1             -0.9426463265       34.1134851237       39.1735744094  TIP3      2406            0.0000000000
     25934      2566  TIP3      H2              0.0652511101       35.1141688582       38.7822920452  TIP3      2406            0.0000000000
     25935      2567  TIP3      OH2             1.7444620059       32.2172247147       23.8058567488  TIP3      2407            0.0000000000
     25936      2567  TIP3      H1              2.3300444516       32.9449106452       24.0886491864  TIP3      2407            0.0000000000
     25937      2567  TIP3      H2              1.3008154229       31.9712942873       24.6254156095  TIP3      2407            0.0000000000
     25938      2568  TIP3      OH2             1.6044476981       30.5121136641       26.3746304617  TIP3      2408            0.0000000000
     25939      2568  TIP3      H1              0.6967644377       30.3515547129       26.7338572592  TIP3      2408            0.0000000000
     25940      2568  TIP3      H2              2.1261455993       30.7282650345       27.1695356950  TIP3      2408            0.0000000000
     25941      2569  TIP3      OH2             1.4025854327       33.5957320407       31.0286438392  TIP3      2409            0.0000000000
     25942      2569  TIP3      H1              1.9286601012       32.7923638821       30.8134374667  TIP3      2409            0.0000000000
     25943      2569  TIP3      H2              2.0110016256       34.0045417628       31.6680835151  TIP3      2409            0.0000000000
     25944      2570  TIP3      OH2             2.4404556269       29.8688108688       22.4066995869  TIP3      2410            0.0000000000
     25945      2570  TIP3      H1              1.7565580080       30.1717794024       21.7879930739  TIP3      2410            0.0000000000
     25946      2570  TIP3      H2              2.4349839702       30.6440832139       23.0029141052  TIP3      2410            0.0000000000
     25947      2571  TIP3      OH2             0.9315566930       27.8852857547       20.8346593725  TIP3      2411            0.0000000000
     25948      2571  TIP3      H1              1.4630326917       28.5307605644       20.3384094405  TIP3      2411            0.0000000000
     25949      2571  TIP3      H2              1.5950116681       27.1916105862       20.9742213782  TIP3      2411            0.0000000000
     25950      2572  TIP3      OH2            -0.7473737400       29.4750832089       26.7523194353  TIP3      2412            0.0000000000
     25951      2572  TIP3      H1             -0.8000733742       28.5994168872       26.2898752863  TIP3      2412            0.0000000000
     25952      2572  TIP3      H2             -0.7125282682       29.2016283916       27.6937975163  TIP3      2412            0.0000000000
     25953      2573  TIP3      OH2           -15.4379979873       31.8285347649       30.6469290754  TIP3      2413            0.0000000000
     25954      2573  TIP3      H1            -15.3791090989       31.0640862048       30.0374490933  TIP3      2413            0.0000000000
     25955      2573  TIP3      H2            -14.4895992870       31.9267523779       30.8917650131  TIP3      2413            0.0000000000
     25956      2574  TIP3      OH2             0.4267223575       30.5525649779       37.2495217343  TIP3      2414            0.0000000000
     25957      2574  TIP3      H1              0.8962751117       29.7987941264       36.8480129373  TIP3      2414            0.0000000000
     25958      2574  TIP3      H2              0.5237143395       31.1853375523       36.5039008882  TIP3      2414            0.0000000000
     25959      2575  TIP3      OH2             1.6095965516       28.0523390120       36.2592291635  TIP3      2415            0.0000000000
     25960      2575  TIP3      H1              1.0853407733       27.8989292198       37.0629127850  TIP3      2415            0.0000000000
     25961      2575  TIP3      H2              2.3676387065       27.4739110580       36.4819085020  TIP3      2415            0.0000000000
     25962      2576  TIP3      OH2            -0.7450038739       27.1132990023       25.6534860884  TIP3      2416            0.0000000000
     25963      2576  TIP3      H1             -0.7985310320       26.1511371902       25.5021068172  TIP3      2416            0.0000000000
     25964      2576  TIP3      H2              0.0129639270       27.2917504135       25.0644909647  TIP3      2416            0.0000000000
     25965      2577  TIP3      OH2             0.2630411145       27.4662746070       30.7773101243  TIP3      2417            0.0000000000
     25966      2577  TIP3      H1              1.2207775655       27.2425061163       30.8021929716  TIP3      2417            0.0000000000
     25967      2577  TIP3      H2              0.3403365634       28.3954021018       31.0386064168  TIP3      2417            0.0000000000
     25968      2578  TIP3      OH2            -0.0927094952       28.2914759334       33.4928702660  TIP3      2418            0.0000000000
     25969      2578  TIP3      H1             -0.8727736117       28.6536192215       33.9590090188  TIP3      2418            0.0000000000
     25970      2578  TIP3      H2              0.3308270917       29.0889760630       33.1251280902  TIP3      2418            0.0000000000
     25971      2579  TIP3      OH2           -15.5265051541       26.4292997813       37.1541542033  TIP3      2419            0.0000000000
     25972      2579  TIP3      H1            -14.6049005331       26.3022068905       37.4831524572  TIP3      2419            0.0000000000
     25973      2579  TIP3      H2            -15.7224467197       25.5286652988       36.8083343933  TIP3      2419            0.0000000000
     25974      2580  TIP3      OH2             2.2071174885       22.7246275538       38.3908207946  TIP3      2420            0.0000000000
     25975      2580  TIP3      H1              2.2148032924       21.7421595456       38.2749319732  TIP3      2420            0.0000000000
     25976      2580  TIP3      H2              2.5310566712       22.9963211546       37.5055385272  TIP3      2420            0.0000000000
     25977      2581  TIP3      OH2            -0.1313322786       24.4930780799       25.2529536719  TIP3      2421            0.0000000000
     25978      2581  TIP3      H1              0.2704480154       23.7980226399       25.8038642542  TIP3      2421            0.0000000000
     25979      2581  TIP3      H2             -0.8605167827       24.0044581352       24.8433419088  TIP3      2421            0.0000000000
     25980      2582  TIP3      OH2           -13.7107978302       24.7760618268       28.5324597223  TIP3      2422            0.0000000000
     25981      2582  TIP3      H1            -13.0780699034       24.0942273024       28.7916591265  TIP3      2422            0.0000000000
     25982      2582  TIP3      H2            -13.8822113823       25.2107420165       29.3987930162  TIP3      2422            0.0000000000
     25983      2583  TIP3      OH2           -16.3475108239       28.1635197170       30.6887996535  TIP3      2423            0.0000000000
     25984      2583  TIP3      H1            -16.0405138593       27.4263960500       30.1343605732  TIP3      2423            0.0000000000
     25985      2583  TIP3      H2            -15.4914714604       28.5600987401       30.9254239180  TIP3      2423            0.0000000000
     25986      2584  TIP3      OH2             2.4150975630       23.7976510515       35.9443610537  TIP3      2424            0.0000000000
     25987      2584  TIP3      H1              2.1381464054       24.6037882977       36.3996729753  TIP3      2424            0.0000000000
     25988      2584  TIP3      H2              1.5909924983       23.4250677977       35.5386216069  TIP3      2424            0.0000000000
     25989      2585  TIP3      OH2             1.6365675671       23.9012183030       21.2634765899  TIP3      2425            0.0000000000
     25990      2585  TIP3      H1              2.5198518940       23.4866957752       21.2634001624  TIP3      2425            0.0000000000
     25991      2585  TIP3      H2              1.8556995615       24.7964658554       21.6087859305  TIP3      2425            0.0000000000
     25992      2586  TIP3      OH2           -16.3510939963       23.2146963044       23.7713452447  TIP3      2426            0.0000000000
     25993      2586  TIP3      H1            -16.9473113309       23.4403548737       24.4982265491  TIP3      2426            0.0000000000
     25994      2586  TIP3      H2            -15.8622363883       24.0696727535       23.7333122247  TIP3      2426            0.0000000000
     25995      2587  TIP3      OH2           -16.1376499818       22.7479583865       33.1592002140  TIP3      2427            0.0000000000
     25996      2587  TIP3      H1            -16.8290496660       22.5532041414       33.8396148246  TIP3      2427            0.0000000000
     25997      2587  TIP3      H2            -16.6059154624       23.3280598480       32.5314536109  TIP3      2427            0.0000000000
     25998      2588  TIP3      OH2             0.5989552598       22.2738283481       34.9532186172  TIP3      2428            0.0000000000
     25999      2588  TIP3      H1             -0.3693270506       22.2363977090       34.7960221485  TIP3      2428            0.0000000000
     26000      2588  TIP3      H2              0.8539388331       21.3264133589       34.8172296218  TIP3      2428            0.0000000000
     26001      2589  TIP3      OH2            -6.1348927604       23.4662595226       29.7704133917  TIP3      2429            0.0000000000
     26002      2589  TIP3      H1             -7.0298483947       23.0735179160       29.6455521380  TIP3      2429            0.0000000000
     26003      2589  TIP3      H2             -5.6639759091       23.1292669976       29.0007674482  TIP3      2429            0.0000000000
     26004      2590  TIP3      OH2            -0.3437960504       21.6736022805       29.3335878852  TIP3      2430            0.0000000000
     26005      2590  TIP3      H1              0.1413781010       22.3097515094       28.7785895865  TIP3      2430            0.0000000000
     26006      2590  TIP3      H2             -1.2766170960       21.8486106018       29.0968133198  TIP3      2430            0.0000000000
     26007      2591  TIP3      OH2             1.2673887825       22.8514913593       27.1747416232  TIP3      2431            0.0000000000
     26008      2591  TIP3      H1              2.0661413186       22.3954818628       26.8384397593  TIP3      2431            0.0000000000
     26009      2591  TIP3      H2              1.6227099334       23.7052186030       27.4973551040  TIP3      2431            0.0000000000
     26010      2592  TIP3      OH2           -13.4513149887       21.8241933794       26.9864485656  TIP3      2432            0.0000000000
     26011      2592  TIP3      H1            -14.2692736805       21.8712751114       26.4547166676  TIP3      2432            0.0000000000
     26012      2592  TIP3      H2            -13.0367852844       21.0350359148       26.5700747320  TIP3      2432            0.0000000000
     26013      2593  TIP3      OH2           -14.6818862024       21.8956311126       21.9325891297  TIP3      2433            0.0000000000
     26014      2593  TIP3      H1            -14.0506508067       22.6300996481       21.8915038295  TIP3      2433            0.0000000000
     26015      2593  TIP3      H2            -15.1419636875       22.0685831905       22.7802257706  TIP3      2433            0.0000000000
     26016      2594  TIP3      OH2            -9.2499642860       22.0026825267       26.7756096701  TIP3      2434            0.0000000000
     26017      2594  TIP3      H1             -8.3132467403       21.9516348012       26.5335787078  TIP3      2434            0.0000000000
     26018      2594  TIP3      H2             -9.2107355245       22.3574661677       27.6826143529  TIP3      2434            0.0000000000
     26019      2595  TIP3      OH2            -2.9162335093       22.2980654649       28.1244860345  TIP3      2435            0.0000000000
     26020      2595  TIP3      H1             -3.4338131619       22.2929252152       27.3040125667  TIP3      2435            0.0000000000
     26021      2595  TIP3      H2             -3.4695165423       21.6824891378       28.6718883955  TIP3      2435            0.0000000000
     26022      2596  TIP3      OH2            -2.0799836746       22.5148927651       23.9540421291  TIP3      2436            0.0000000000
     26023      2596  TIP3      H1             -2.7230276717       23.2081919184       23.6552186634  TIP3      2436            0.0000000000
     26024      2596  TIP3      H2             -2.6907319258       21.8368322403       24.3050654527  TIP3      2436            0.0000000000
     26025      2597  TIP3      OH2           -13.7801839255       23.0620178483       36.4918459983  TIP3      2437            0.0000000000
     26026      2597  TIP3      H1            -14.4525960266       23.4728223192       37.0771521675  TIP3      2437            0.0000000000
     26027      2597  TIP3      H2            -13.2160700798       23.8268488007       36.2667997709  TIP3      2437            0.0000000000
     26028      2598  TIP3      OH2           -11.1074914989       22.4717108050       38.2986810394  TIP3      2438            0.0000000000
     26029      2598  TIP3      H1            -10.2683378456       22.1890055883       37.8945631837  TIP3      2438            0.0000000000
     26030      2598  TIP3      H2            -11.2877684496       21.7244661798       38.9028651335  TIP3      2438            0.0000000000
     26031      2599  TIP3      OH2            -3.2415107765       21.7259464736       38.0832808762  TIP3      2439            0.0000000000
     26032      2599  TIP3      H1             -3.2975571961       20.9567444070       38.6854371635  TIP3      2439            0.0000000000
     26033      2599  TIP3      H2             -2.5830121696       21.3910135511       37.4381313587  TIP3      2439            0.0000000000
     26034      2600  TIP3      OH2            14.0941700676       31.5086837390       27.2625710888  TIP3      2440            0.0000000000
     26035      2600  TIP3      H1             14.2379048321       32.3140981309       27.7997073210  TIP3      2440            0.0000000000
     26036      2600  TIP3      H2             13.9793506062       31.9360534425       26.3898693881  TIP3      2440            0.0000000000
     26037      2601  TIP3      OH2            14.1543960180       30.2800341929       30.2454352231  TIP3      2441            0.0000000000
     26038      2601  TIP3      H1             13.7492800748       30.1909697462       31.1349021799  TIP3      2441            0.0000000000
     26039      2601  TIP3      H2             13.4715658730       29.8621931928       29.7132835465  TIP3      2441            0.0000000000
     26040      2602  TIP3      OH2             5.3833386964       30.4122146911       31.8344441545  TIP3      2442            0.0000000000
     26041      2602  TIP3      H1              5.2512476196       29.5921727375       32.3440089117  TIP3      2442            0.0000000000
     26042      2602  TIP3      H2              6.3392005713       30.4137657256       31.6439210749  TIP3      2442            0.0000000000
     26043      2603  TIP3      OH2            17.3462341925       33.2263129182       28.3958854810  TIP3      2443            0.0000000000
     26044      2603  TIP3      H1             16.9629519030       32.4306002969       28.7946752014  TIP3      2443            0.0000000000
     26045      2603  TIP3      H2             16.5938465589       33.8456204313       28.3201217418  TIP3      2443            0.0000000000
     26046      2604  TIP3      OH2             6.6904432245       34.2113553070       30.9719773064  TIP3      2444            0.0000000000
     26047      2604  TIP3      H1              6.2786443438       33.3800659734       30.6767007546  TIP3      2444            0.0000000000
     26048      2604  TIP3      H2              7.0100258916       34.5318923037       30.1011857066  TIP3      2444            0.0000000000
     26049      2605  TIP3      OH2             3.0979705359       28.3631061844       25.6568663324  TIP3      2445            0.0000000000
     26050      2605  TIP3      H1              2.9170302078       29.3003111653       25.8820409609  TIP3      2445            0.0000000000
     26051      2605  TIP3      H2              2.1906916543       28.1195711663       25.3970181935  TIP3      2445            0.0000000000
     26052      2606  TIP3      OH2             4.0318770517       30.8222179326       28.2021184524  TIP3      2446            0.0000000000
     26053      2606  TIP3      H1              4.2260876553       29.9523254730       28.6236791148  TIP3      2446            0.0000000000
     26054      2606  TIP3      H2              4.8734812229       31.3164004863       28.3433172992  TIP3      2446            0.0000000000
     26055      2607  TIP3      OH2            11.6749498392       33.5766165989       31.0892710926  TIP3      2447            0.0000000000
     26056      2607  TIP3      H1             12.2538152142       32.8951202303       30.7077420954  TIP3      2447            0.0000000000
     26057      2607  TIP3      H2             12.1920663860       33.8430149390       31.8621950099  TIP3      2447            0.0000000000
     26058      2608  TIP3      OH2            20.6534148255       24.4150864865       30.7353828977  TIP3      2448            0.0000000000
     26059      2608  TIP3      H1             20.4416495121       24.9838827888       31.5010157505  TIP3      2448            0.0000000000
     26060      2608  TIP3      H2             21.1466956447       25.0466114381       30.1792149204  TIP3      2448            0.0000000000
     26061      2609  TIP3      OH2            15.0539323353       27.4394581834       31.3448681528  TIP3      2449            0.0000000000
     26062      2609  TIP3      H1             15.4114508934       26.5390709521       31.2519494362  TIP3      2449            0.0000000000
     26063      2609  TIP3      H2             14.7776706203       27.6363757827       30.4242381451  TIP3      2449            0.0000000000
     26064      2610  TIP3      OH2             8.1764837105       25.5656260925       28.0354412108  TIP3      2450            0.0000000000
     26065      2610  TIP3      H1              8.7240579219       26.3691667330       27.9405645580  TIP3      2450            0.0000000000
     26066      2610  TIP3      H2              7.8976667052       25.4236843248       27.1080980204  TIP3      2450            0.0000000000
     26067      2611  TIP3      OH2            15.3816463632       25.5506565333       26.7380547098  TIP3      2451            0.0000000000
     26068      2611  TIP3      H1             16.0884075808       25.2843364559       27.3771853792  TIP3      2451            0.0000000000
     26069      2611  TIP3      H2             15.8232829965       26.2928239572       26.2950714891  TIP3      2451            0.0000000000
     26070      2612  TIP3      OH2             4.7215635287       28.3788248792       29.1267306343  TIP3      2452            0.0000000000
     26071      2612  TIP3      H1              5.2354859440       27.8153565687       29.7414445194  TIP3      2452            0.0000000000
     26072      2612  TIP3      H2              5.1800741454       28.2685200098       28.2873607728  TIP3      2452            0.0000000000
     26073      2613  TIP3      OH2             9.8136548432       29.9929374346       28.2877866975  TIP3      2453            0.0000000000
     26074      2613  TIP3      H1             10.3507436170       29.5723920406       28.9906802854  TIP3      2453            0.0000000000
     26075      2613  TIP3      H2              9.3879886502       29.1893505997       27.9376159890  TIP3      2453            0.0000000000
     26076      2614  TIP3      OH2            20.5619745529       25.8323634462       33.3689207707  TIP3      2454            0.0000000000
     26077      2614  TIP3      H1             20.2296105613       26.6095153602       32.8620218859  TIP3      2454            0.0000000000
     26078      2614  TIP3      H2             20.4279534985       26.0960710616       34.2883473067  TIP3      2454            0.0000000000
     26079      2615  TIP3      OH2             7.4071815138       24.8146050371       32.4095330017  TIP3      2455            0.0000000000
     26080      2615  TIP3      H1              6.9798499572       25.2650494731       31.6539948580  TIP3      2455            0.0000000000
     26081      2615  TIP3      H2              6.6528631621       24.7061163171       33.0196210739  TIP3      2455            0.0000000000
     26082      2616  TIP3      OH2            14.6416052238       33.5963088857       25.2983251413  TIP3      2456            0.0000000000
     26083      2616  TIP3      H1             14.6387490957       34.3028208477       24.6276214144  TIP3      2456            0.0000000000
     26084      2616  TIP3      H2             14.2505022823       34.0720516292       26.0694274850  TIP3      2456            0.0000000000
     26085      2617  TIP3      OH2             9.3097008072       32.2036127596       32.5871802698  TIP3      2457            0.0000000000
     26086      2617  TIP3      H1              8.6143747245       32.8792569756       32.4970919275  TIP3      2457            0.0000000000
     26087      2617  TIP3      H2             10.0370633860       32.5807673838       32.0569101362  TIP3      2457            0.0000000000
     26088      2618  TIP3      OH2            17.3399072564       25.3197012281       28.5176931787  TIP3      2458            0.0000000000
     26089      2618  TIP3      H1             17.1580019115       24.9857498039       29.4047790055  TIP3      2458            0.0000000000
     26090      2618  TIP3      H2             18.2213322062       25.7277906146       28.6336345761  TIP3      2458            0.0000000000
     26091      2619  TIP3      OH2             6.4716335052       26.6034382681       30.3116156687  TIP3      2459            0.0000000000
     26092      2619  TIP3      H1              6.3294563973       27.2321222891       31.0618276353  TIP3      2459            0.0000000000
     26093      2619  TIP3      H2              7.4327574496       26.8024725124       30.1707907886  TIP3      2459            0.0000000000
     26094      2620  TIP3      OH2             7.8994963647       34.6382341930       33.3735442038  TIP3      2460            0.0000000000
     26095      2620  TIP3      H1              7.6117198883       34.7070642177       32.4361307331  TIP3      2460            0.0000000000
     26096      2620  TIP3      H2              6.9931215236       34.5188806587       33.7559279713  TIP3      2460            0.0000000000
     26097      2621  TIP3      OH2             3.8034236786       34.1074071641       23.9332408722  TIP3      2461            0.0000000000
     26098      2621  TIP3      H1              3.1639585261       34.4409892225       23.2771426505  TIP3      2461            0.0000000000
     26099      2621  TIP3      H2              4.1284291494       34.9299478892       24.3263798159  TIP3      2461            0.0000000000
     26100      2622  TIP3      OH2            18.0428589414       24.4574745430       32.0927706978  TIP3      2462            0.0000000000
     26101      2622  TIP3      H1             17.1868613489       24.9011583018       31.9739259849  TIP3      2462            0.0000000000
     26102      2622  TIP3      H2             18.5619635084       25.0344352960       31.4905097571  TIP3      2462            0.0000000000
     26103      2623  TIP3      OH2            10.4453628667       21.7652233419       30.1997903233  TIP3      2463            0.0000000000
     26104      2623  TIP3      H1              9.7635107466       21.0861422531       30.3778384508  TIP3      2463            0.0000000000
     26105      2623  TIP3      H2              9.9286766937       22.5637875605       30.3779726037  TIP3      2463            0.0000000000
     26106      2624  TIP3      OH2            18.3162524362       33.5278466305       34.9771935120  TIP3      2464            0.0000000000
     26107      2624  TIP3      H1             18.5480437573       32.9703167800       34.2051897185  TIP3      2464            0.0000000000
     26108      2624  TIP3      H2             18.7105601771       34.3915408724       34.7134391314  TIP3      2464            0.0000000000
     26109      2625  TIP3      OH2            13.2435370075       31.2423892049       24.5317410542  TIP3      2465            0.0000000000
     26110      2625  TIP3      H1             12.8036134342       31.9965615411       24.0890798939  TIP3      2465            0.0000000000
     26111      2625  TIP3      H2             13.9057941307       30.9888401296       23.8678613202  TIP3      2465            0.0000000000
     26112      2626  TIP3      OH2            13.3810344574       28.7393296903       22.0128121129  TIP3      2466            0.0000000000
     26113      2626  TIP3      H1             13.3398799363       27.8678682891       22.4347594730  TIP3      2466            0.0000000000
     26114      2626  TIP3      H2             12.8110735663       28.6304813802       21.2408929880  TIP3      2466            0.0000000000
     26115      2627  TIP3      OH2            20.2244737914       30.0597138049       32.1828641032  TIP3      2467            0.0000000000
     26116      2627  TIP3      H1             19.5618677882       30.7782166188       32.3067871611  TIP3      2467            0.0000000000
     26117      2627  TIP3      H2             20.8718999886       30.5523470036       31.6281697706  TIP3      2467            0.0000000000
     26118      2628  TIP3      OH2            16.5614267426       30.7741765310       24.7676861942  TIP3      2468            0.0000000000
     26119      2628  TIP3      H1             16.1127073426       31.1575579660       25.5396627164  TIP3      2468            0.0000000000
     26120      2628  TIP3      H2             17.0670212004       30.0449973210       25.2069846799  TIP3      2468            0.0000000000
     26121      2629  TIP3      OH2            16.8493710770       29.7429071814       33.9580057348  TIP3      2469            0.0000000000
     26122      2629  TIP3      H1             16.8024072470       30.2941349321       34.7455390780  TIP3      2469            0.0000000000
     26123      2629  TIP3      H2             15.9042893029       29.6995186460       33.6879279759  TIP3      2469            0.0000000000
     26124      2630  TIP3      OH2             7.8800104435       31.8020157960       26.7880879905  TIP3      2470            0.0000000000
     26125      2630  TIP3      H1              7.7923260743       31.3486758215       25.9320779330  TIP3      2470            0.0000000000
     26126      2630  TIP3      H2              8.4984064588       31.2316238886       27.2824324325  TIP3      2470            0.0000000000
     26127      2631  TIP3      OH2             9.5559571671       33.4034826040       29.0585123746  TIP3      2471            0.0000000000
     26128      2631  TIP3      H1              9.2136399877       34.2096991614       28.6349602942  TIP3      2471            0.0000000000
     26129      2631  TIP3      H2              9.9548576099       33.7603062260       29.8685330986  TIP3      2471            0.0000000000
     26130      2632  TIP3      OH2             8.1166464568       30.8560998124       30.5227100328  TIP3      2472            0.0000000000
     26131      2632  TIP3      H1              8.6345170557       30.4676298374       29.8015479286  TIP3      2472            0.0000000000
     26132      2632  TIP3      H2              8.8342780798       31.2150593839       31.0769229622  TIP3      2472            0.0000000000
     26133      2633  TIP3      OH2             8.7246076368       33.9855812089       35.9431899118  TIP3      2473            0.0000000000
     26134      2633  TIP3      H1              9.0256940259       34.8866244464       35.7740901540  TIP3      2473            0.0000000000
     26135      2633  TIP3      H2              8.3364804246       33.7802595445       35.0708190862  TIP3      2473            0.0000000000
     26136      2634  TIP3      OH2             6.7483472306       30.7753984536       34.6112584817  TIP3      2474            0.0000000000
     26137      2634  TIP3      H1              6.7098526916       31.7153252734       34.8171476473  TIP3      2474            0.0000000000
     26138      2634  TIP3      H2              5.8191493439       30.5183751764       34.7363521604  TIP3      2474            0.0000000000
     26139      2635  TIP3      OH2            19.1947425402       21.5317192246       23.1811865171  TIP3      2475            0.0000000000
     26140      2635  TIP3      H1             18.3228951633       21.7178814781       22.7655860543  TIP3      2475            0.0000000000
     26141      2635  TIP3      H2             19.6698045951       22.3656356265       23.0524507496  TIP3      2475            0.0000000000
     26142      2636  TIP3      OH2             7.3523546495       30.2055353071       24.3848885933  TIP3      2476            0.0000000000
     26143      2636  TIP3      H1              6.8643030378       31.0270288446       24.1160586324  TIP3      2476            0.0000000000
     26144      2636  TIP3      H2              6.6218387312       29.6875197297       24.7475431768  TIP3      2476            0.0000000000
     26145      2637  TIP3      OH2             3.4437823866       33.1166537303       33.4453784101  TIP3      2477            0.0000000000
     26146      2637  TIP3      H1              2.6282837723       32.7653472476       33.8613579140  TIP3      2477            0.0000000000
     26147      2637  TIP3      H2              3.9429110595       32.2792232966       33.3477445055  TIP3      2477            0.0000000000
     26148      2638  TIP3      OH2            18.6293105420       27.7126640548       36.4737773275  TIP3      2478            0.0000000000
     26149      2638  TIP3      H1             17.8062375824       27.9224699827       35.9899475554  TIP3      2478            0.0000000000
     26150      2638  TIP3      H2             18.6728745874       26.7348522124       36.3972938363  TIP3      2478            0.0000000000
     26151      2639  TIP3      OH2             5.6069317513       34.3243961480       34.7238944020  TIP3      2479            0.0000000000
     26152      2639  TIP3      H1              5.6721475191       33.7301940156       35.5019141040  TIP3      2479            0.0000000000
     26153      2639  TIP3      H2              4.8113511873       33.9876857087       34.2535725686  TIP3      2479            0.0000000000
     26154      2640  TIP3      OH2             7.9610998922       23.1765420099       30.1714906453  TIP3      2480            0.0000000000
     26155      2640  TIP3      H1              6.9883795187       23.0091882970       30.2242303019  TIP3      2480            0.0000000000
     26156      2640  TIP3      H2              8.1132190584       23.6603115078       31.0064068077  TIP3      2480            0.0000000000
     26157      2641  TIP3      OH2            12.8039362039       22.3415843752       33.5823924644  TIP3      2481            0.0000000000
     26158      2641  TIP3      H1             13.2399724121       21.9049865843       34.3553793415  TIP3      2481            0.0000000000
     26159      2641  TIP3      H2             11.8504039321       22.3260977445       33.8246381868  TIP3      2481            0.0000000000
     26160      2642  TIP3      OH2            15.9338352151       26.7050622818       34.5134863392  TIP3      2482            0.0000000000
     26161      2642  TIP3      H1             15.4553407522       26.1354833662       35.1639103362  TIP3      2482            0.0000000000
     26162      2642  TIP3      H2             15.1952350675       27.1197186424       34.0385740672  TIP3      2482            0.0000000000
     26163      2643  TIP3      OH2            13.0620738912       25.0748085242       20.9928305366  TIP3      2483            0.0000000000
     26164      2643  TIP3      H1             12.7765596911       25.0939003303       21.9361834411  TIP3      2483            0.0000000000
     26165      2643  TIP3      H2             12.3751693791       24.5258157641       20.5749478077  TIP3      2483            0.0000000000
     26166      2644  TIP3      OH2             8.8098644478       27.8048653947       31.1069833738  TIP3      2484            0.0000000000
     26167      2644  TIP3      H1              8.4426055412       27.9804380114       31.9911826114  TIP3      2484            0.0000000000
     26168      2644  TIP3      H2              9.5700129372       28.4297724983       31.1003785755  TIP3      2484            0.0000000000
     26169      2645  TIP3      OH2             8.0357746518       28.0140806498       26.8812250565  TIP3      2485            0.0000000000
     26170      2645  TIP3      H1              7.2307330759       27.6290798089       26.5058997098  TIP3      2485            0.0000000000
     26171      2645  TIP3      H2              8.4628628798       28.3879631052       26.0956625593  TIP3      2485            0.0000000000
     26172      2646  TIP3      OH2            13.9317859043       28.8680919934       25.6274958834  TIP3      2486            0.0000000000
     26173      2646  TIP3      H1             13.7387574808       29.7743884026       25.2933534479  TIP3      2486            0.0000000000
     26174      2646  TIP3      H2             14.4893015998       28.4937865966       24.9240758415  TIP3      2486            0.0000000000
     26175      2647  TIP3      OH2            12.9529549631       28.4940551561       37.0584889931  TIP3      2487            0.0000000000
     26176      2647  TIP3      H1             12.4513423514       27.6562325573       37.1862130063  TIP3      2487            0.0000000000
     26177      2647  TIP3      H2             13.8047468518       28.2482812380       37.4958072300  TIP3      2487            0.0000000000
     26178      2648  TIP3      OH2            14.5813309480       27.8724008603       28.5746752624  TIP3      2488            0.0000000000
     26179      2648  TIP3      H1             14.5391143535       28.3195119026       27.7031420495  TIP3      2488            0.0000000000
     26180      2648  TIP3      H2             14.6391713956       26.9508634399       28.2609507265  TIP3      2488            0.0000000000
     26181      2649  TIP3      OH2             5.8296270515       27.6540412385       32.7338717126  TIP3      2489            0.0000000000
     26182      2649  TIP3      H1              6.4780211611       28.0274592201       33.3774044207  TIP3      2489            0.0000000000
     26183      2649  TIP3      H2              5.5790289899       26.8110008014       33.1346239427  TIP3      2489            0.0000000000
     26184      2650  TIP3      OH2             3.0037863379       24.8377370923       27.6846989215  TIP3      2490            0.0000000000
     26185      2650  TIP3      H1              3.1759217758       24.0025013629       28.1573732188  TIP3      2490            0.0000000000
     26186      2650  TIP3      H2              3.1912801142       24.6077167782       26.7476097664  TIP3      2490            0.0000000000
     26187      2651  TIP3      OH2             2.6907513072       26.1851513531       22.3959487285  TIP3      2491            0.0000000000
     26188      2651  TIP3      H1              3.5503931138       26.5115446269       22.6865045238  TIP3      2491            0.0000000000
     26189      2651  TIP3      H2              2.1077338808       26.7208095057       22.9876042366  TIP3      2491            0.0000000000
     26190      2652  TIP3      OH2            14.2803338495       29.4781769995       32.9415086674  TIP3      2492            0.0000000000
     26191      2652  TIP3      H1             14.7026236416       28.7866240374       32.3845451769  TIP3      2492            0.0000000000
     26192      2652  TIP3      H2             13.4906531536       29.0003925836       33.2718995898  TIP3      2492            0.0000000000
     26193      2653  TIP3      OH2            11.3025479205       25.1154582176       28.2790088160  TIP3      2493            0.0000000000
     26194      2653  TIP3      H1             11.3297128781       26.0784983179       28.0967830119  TIP3      2493            0.0000000000
     26195      2653  TIP3      H2             12.1906597463       24.9694647763       28.6363301194  TIP3      2493            0.0000000000
     26196      2654  TIP3      OH2             5.5209205713       26.7796803248       25.5967047116  TIP3      2494            0.0000000000
     26197      2654  TIP3      H1              4.5865000376       27.1078649374       25.5786533065  TIP3      2494            0.0000000000
     26198      2654  TIP3      H2              5.8978600470       27.2502398001       24.8375787143  TIP3      2494            0.0000000000
     26199      2655  TIP3      OH2             8.5353427136       26.9398820070       24.0876430732  TIP3      2495            0.0000000000
     26200      2655  TIP3      H1              9.4238605571       26.7152229333       24.4262890381  TIP3      2495            0.0000000000
     26201      2655  TIP3      H2              8.7481998816       27.8025306851       23.7049258571  TIP3      2495            0.0000000000
     26202      2656  TIP3      OH2            15.2507600531       24.6436302074       30.7177847106  TIP3      2496            0.0000000000
     26203      2656  TIP3      H1             14.4806229775       24.6268982837       31.3229203360  TIP3      2496            0.0000000000
     26204      2656  TIP3      H2             14.9289879715       24.0173615437       30.0365853891  TIP3      2496            0.0000000000
     26205      2657  TIP3      OH2             6.0023354455       32.8978131831       36.8987203117  TIP3      2497            0.0000000000
     26206      2657  TIP3      H1              6.7874276925       32.7499437619       37.4488699027  TIP3      2497            0.0000000000
     26207      2657  TIP3      H2              5.2758359128       32.5625117658       37.4712445285  TIP3      2497            0.0000000000
     26208      2658  TIP3      OH2            11.6389079520       27.8005437848       29.1658532811  TIP3      2498            0.0000000000
     26209      2658  TIP3      H1             12.5863443919       27.7768698833       28.9528021040  TIP3      2498            0.0000000000
     26210      2658  TIP3      H2             11.6536325780       28.3917294110       29.9552800571  TIP3      2498            0.0000000000
     26211      2659  TIP3      OH2             7.0983162248       24.2191680743       25.9309351293  TIP3      2499            0.0000000000
     26212      2659  TIP3      H1              6.2431127031       23.7593510490       25.9597296018  TIP3      2499            0.0000000000
     26213      2659  TIP3      H2              7.0984971676       24.6852743710       25.0844040587  TIP3      2499            0.0000000000
     26214      2660  TIP3      OH2            10.8485445395       26.0793013724       31.9859491846  TIP3      2500            0.0000000000
     26215      2660  TIP3      H1             10.4488368592       26.5864463714       31.2613294880  TIP3      2500            0.0000000000
     26216      2660  TIP3      H2             11.5140903632       26.7233017162       32.2600508890  TIP3      2500            0.0000000000
     26217      2661  TIP3      OH2            11.5752126408       33.2955531789       23.5976430506  TIP3      2501            0.0000000000
     26218      2661  TIP3      H1             10.8258736903       32.8671398360       23.1549441065  TIP3      2501            0.0000000000
     26219      2661  TIP3      H2             11.1596577027       33.4251116533       24.4743587843  TIP3      2501            0.0000000000
     26220      2662  TIP3      OH2            18.6485543547       32.2195648853       32.6901242562  TIP3      2502            0.0000000000
     26221      2662  TIP3      H1             18.9430329259       32.9564071078       32.0982481146  TIP3      2502            0.0000000000
     26222      2662  TIP3      H2             17.7302733389       32.1046875981       32.3879453493  TIP3      2502            0.0000000000
     26223      2663  TIP3      OH2            15.4241541330       25.5105714929       22.1189468255  TIP3      2503            0.0000000000
     26224      2663  TIP3      H1             14.5801445986       25.4106272439       21.6173467255  TIP3      2503            0.0000000000
     26225      2663  TIP3      H2             15.3698538645       26.4563318022       22.3536485501  TIP3      2503            0.0000000000
     26226      2664  TIP3      OH2            13.3213087599       33.2643791198       35.5629988445  TIP3      2504            0.0000000000
     26227      2664  TIP3      H1             12.8403404988       32.4434324428       35.7523945137  TIP3      2504            0.0000000000
     26228      2664  TIP3      H2             13.3702553808       33.2539841315       34.5779249327  TIP3      2504            0.0000000000
     26229      2665  TIP3      OH2            16.1241216459       28.1780590368       23.3609226043  TIP3      2505            0.0000000000
     26230      2665  TIP3      H1             16.7998173415       27.5882766979       23.7689872845  TIP3      2505            0.0000000000
     26231      2665  TIP3      H2             16.1280220932       28.8712762856       24.0354215722  TIP3      2505            0.0000000000
     26232      2666  TIP3      OH2             6.2918706801       32.3777137875       29.0910665272  TIP3      2506            0.0000000000
     26233      2666  TIP3      H1              7.0702820816       32.6117529596       28.5466577760  TIP3      2506            0.0000000000
     26234      2666  TIP3      H2              6.6797413449       31.7245808965       29.7082451266  TIP3      2506            0.0000000000
     26235      2667  TIP3      OH2            13.6331922141       34.8325070677       22.6557220713  TIP3      2507            0.0000000000
     26236      2667  TIP3      H1             13.0273048893       35.5436467816       22.8988818708  TIP3      2507            0.0000000000
     26237      2667  TIP3      H2             13.0806576667       34.0453677506       22.8610182195  TIP3      2507            0.0000000000
     26238      2668  TIP3      OH2             3.8299323381       30.4569118136       34.6829899458  TIP3      2508            0.0000000000
     26239      2668  TIP3      H1              4.1385138340       30.1439131143       35.5584208050  TIP3      2508            0.0000000000
     26240      2668  TIP3      H2              2.8671627107       30.3897042992       34.8086587714  TIP3      2508            0.0000000000
     26241      2669  TIP3      OH2            10.3528707127       29.6034956669       36.7698334026  TIP3      2509            0.0000000000
     26242      2669  TIP3      H1             10.2110190306       29.8809817690       35.8462552082  TIP3      2509            0.0000000000
     26243      2669  TIP3      H2             11.2927707319       29.3149307008       36.7044621005  TIP3      2509            0.0000000000
     26244      2670  TIP3      OH2            21.0282411148       27.2472308930       23.2548917222  TIP3      2510            0.0000000000
     26245      2670  TIP3      H1             20.7115312788       26.7992831112       22.4441760027  TIP3      2510            0.0000000000
     26246      2670  TIP3      H2             20.9912814874       28.1739287535       22.9037307610  TIP3      2510            0.0000000000
     26247      2671  TIP3      OH2            20.8803780889       33.6100106608       36.0196769155  TIP3      2511            0.0000000000
     26248      2671  TIP3      H1             19.9343492609       33.7909323761       35.8443503513  TIP3      2511            0.0000000000
     26249      2671  TIP3      H2             21.1948971075       33.4777539122       35.1074539828  TIP3      2511            0.0000000000
     26250      2672  TIP3      OH2            16.4261354488       31.5726274494       30.7171578550  TIP3      2512            0.0000000000
     26251      2672  TIP3      H1             15.5560792802       31.1331319488       30.8338623132  TIP3      2512            0.0000000000
     26252      2672  TIP3      H2             16.8632132564       30.8955070435       30.1670521537  TIP3      2512            0.0000000000
     26253      2673  TIP3      OH2             5.0314772059       31.1006110341       21.5583184496  TIP3      2513            0.0000000000
     26254      2673  TIP3      H1              4.8368201332       31.0948947089       22.5039315374  TIP3      2513            0.0000000000
     26255      2673  TIP3      H2              4.3594044272       30.4913583323       21.2089474654  TIP3      2513            0.0000000000
     26256      2674  TIP3      OH2             9.9019311130       33.3676316558       25.9618150169  TIP3      2514            0.0000000000
     26257      2674  TIP3      H1              9.9007043782       34.3449677069       26.1169714821  TIP3      2514            0.0000000000
     26258      2674  TIP3      H2              9.0718313598       33.1278360148       26.4297050770  TIP3      2514            0.0000000000
     26259      2675  TIP3      OH2            14.0753816647       33.1511959337       32.9970656470  TIP3      2515            0.0000000000
     26260      2675  TIP3      H1             14.3736939435       32.4361717481       33.6015545195  TIP3      2515            0.0000000000
     26261      2675  TIP3      H2             14.7571038502       33.1345817411       32.2987176553  TIP3      2515            0.0000000000
     26262      2676  TIP3      OH2            16.6706642087       33.6640113556       20.8756877372  TIP3      2516            0.0000000000
     26263      2676  TIP3      H1             17.0149890685       33.3957509520       21.7432925285  TIP3      2516            0.0000000000
     26264      2676  TIP3      H2             15.9534950508       34.2640876142       21.1110428501  TIP3      2516            0.0000000000
     26265      2677  TIP3      OH2             4.8414040511       24.9151043260       34.0188591350  TIP3      2517            0.0000000000
     26266      2677  TIP3      H1              4.2027935176       25.6262109958       33.8871982136  TIP3      2517            0.0000000000
     26267      2677  TIP3      H2              4.2414855399       24.1630080578       34.1882351748  TIP3      2517            0.0000000000
     26268      2678  TIP3      OH2            17.4690496292       33.2888187130       23.6472413768  TIP3      2518            0.0000000000
     26269      2678  TIP3      H1             17.0408810813       32.5007453400       24.0469951651  TIP3      2518            0.0000000000
     26270      2678  TIP3      H2             18.3600984117       32.9665921540       23.4210200867  TIP3      2518            0.0000000000
     26271      2679  TIP3      OH2             5.9567445218       32.4723187835       24.1095438727  TIP3      2519            0.0000000000
     26272      2679  TIP3      H1              5.0966818496       32.9274316346       24.2789854014  TIP3      2519            0.0000000000
     26273      2679  TIP3      H2              6.5665139867       33.1795201581       24.3664563757  TIP3      2519            0.0000000000
     26274      2680  TIP3      OH2            13.8686526044       24.9374571744       33.6238547219  TIP3      2520            0.0000000000
     26275      2680  TIP3      H1             14.8216858616       24.8956876223       33.7490361792  TIP3      2520            0.0000000000
     26276      2680  TIP3      H2             13.6001192120       24.0029012147       33.7354949858  TIP3      2520            0.0000000000
     26277      2681  TIP3      OH2            15.7296033262       23.7342109248       24.5074763978  TIP3      2521            0.0000000000
     26278      2681  TIP3      H1             15.4189449324       24.3806201453       23.8312533978  TIP3      2521            0.0000000000
     26279      2681  TIP3      H2             15.3098212913       24.1396180554       25.2943928996  TIP3      2521            0.0000000000
     26280      2682  TIP3      OH2            11.4972837952       27.0808276109       26.1122563078  TIP3      2522            0.0000000000
     26281      2682  TIP3      H1             12.2555094545       27.6887019277       26.0816839014  TIP3      2522            0.0000000000
     26282      2682  TIP3      H2             11.7943455195       26.4521805769       25.4148670360  TIP3      2522            0.0000000000
     26283      2683  TIP3      OH2            13.0033967259       27.4172615308       34.4041875172  TIP3      2523            0.0000000000
     26284      2683  TIP3      H1             13.4154797422       27.5777340050       35.2765358248  TIP3      2523            0.0000000000
     26285      2683  TIP3      H2             13.2540052886       26.4991854046       34.1587702772  TIP3      2523            0.0000000000
     26286      2684  TIP3      OH2            12.6831653191       23.2254088335       26.3959174448  TIP3      2524            0.0000000000
     26287      2684  TIP3      H1             12.0957878649       23.9991915526       26.4812115542  TIP3      2524            0.0000000000
     26288      2684  TIP3      H2             13.3553785543       23.6649129894       25.8397319422  TIP3      2524            0.0000000000
     26289      2685  TIP3      OH2            18.1713853612       25.2612259256       35.1979524959  TIP3      2525            0.0000000000
     26290      2685  TIP3      H1             17.3325367718       25.7550625492       35.0647939267  TIP3      2525            0.0000000000
     26291      2685  TIP3      H2             18.5052767181       25.2166673692       34.2894260766  TIP3      2525            0.0000000000
     26292      2686  TIP3      OH2            17.1814336516       29.2297342935       29.2132824772  TIP3      2526            0.0000000000
     26293      2686  TIP3      H1             16.3884487668       28.6792010851       29.1125945470  TIP3      2526            0.0000000000
     26294      2686  TIP3      H2             17.9325958103       28.6030077395       29.2057302710  TIP3      2526            0.0000000000
     26295      2687  TIP3      OH2             6.4012247069      -33.9141531744       23.5957450618  TIP3      2527            0.0000000000
     26296      2687  TIP3      H1              6.8441796381      -33.1171443367       23.2350919396  TIP3      2527            0.0000000000
     26297      2687  TIP3      H2              6.9126145903      -34.6048059210       23.1420123508  TIP3      2527            0.0000000000
     26298      2688  TIP3      OH2             5.4432782799       22.4327913954       29.9501487760  TIP3      2528            0.0000000000
     26299      2688  TIP3      H1              5.4308430717       22.2558713263       28.9898034977  TIP3      2528            0.0000000000
     26300      2688  TIP3      H2              5.1939903571       21.5312229060       30.2687723981  TIP3      2528            0.0000000000
     26301      2689  TIP3      OH2             3.8036473145       32.8787335480       38.4140375772  TIP3      2529            0.0000000000
     26302      2689  TIP3      H1              3.6081816724       31.9345852303       38.3290172757  TIP3      2529            0.0000000000
     26303      2689  TIP3      H2              3.4209764142       33.2431408399       37.5753414227  TIP3      2529            0.0000000000
     26304      2690  TIP3      OH2            10.5195826082       33.0807133961       20.0169685686  TIP3      2530            0.0000000000
     26305      2690  TIP3      H1             10.2859150771       32.6044332787       20.8177342182  TIP3      2530            0.0000000000
     26306      2690  TIP3      H2             10.8002910864       32.3172050946       19.4765034327  TIP3      2530            0.0000000000
     26307      2691  TIP3      OH2            10.8606029403       32.3826171329       36.9221950775  TIP3      2531            0.0000000000
     26308      2691  TIP3      H1             10.4814120561       33.1169214570       36.3943833649  TIP3      2531            0.0000000000
     26309      2691  TIP3      H2             10.9422101886       31.6532423730       36.2764680657  TIP3      2531            0.0000000000
     26310      2692  TIP3      OH2            13.3845868185       34.2333621149       19.3806229294  TIP3      2532            0.0000000000
     26311      2692  TIP3      H1             13.3946043594       34.2357244354       20.3452660970  TIP3      2532            0.0000000000
     26312      2692  TIP3      H2             13.0035474215       33.3753482448       19.1515387442  TIP3      2532            0.0000000000
     26313      2693  TIP3      OH2            15.8802547484       32.6606906254       35.2838903052  TIP3      2533            0.0000000000
     26314      2693  TIP3      H1             16.7062863366       33.1978077962       35.1801960869  TIP3      2533            0.0000000000
     26315      2693  TIP3      H2             15.1959953782       33.3354566605       35.4652018237  TIP3      2533            0.0000000000
     26316      2694  TIP3      OH2             4.9119953909       30.0860078890       37.3102055090  TIP3      2534            0.0000000000
     26317      2694  TIP3      H1              5.5416354846       29.3814229066       37.5281416799  TIP3      2534            0.0000000000
     26318      2694  TIP3      H2              4.8177974780       30.4572498658       38.2120262348  TIP3      2534            0.0000000000
     26319      2695  TIP3      OH2             9.3728228765       31.3562203475       22.5534147980  TIP3      2535            0.0000000000
     26320      2695  TIP3      H1              8.6351650045       30.9860071990       23.0792312899  TIP3      2535            0.0000000000
     26321      2695  TIP3      H2              9.7449066032       30.5869513413       22.0937327719  TIP3      2535            0.0000000000
     26322      2696  TIP3      OH2             8.1053525787       28.6582866905       33.8418217310  TIP3      2536            0.0000000000
     26323      2696  TIP3      H1              7.5948278374       29.4597933181       34.1276093395  TIP3      2536            0.0000000000
     26324      2696  TIP3      H2              8.9843958926       29.0661663943       33.7730149161  TIP3      2536            0.0000000000
     26325      2697  TIP3      OH2            13.9716928809       31.1860672318       38.3107208054  TIP3      2537            0.0000000000
     26326      2697  TIP3      H1             14.7508168337       30.8586822640       37.8317915657  TIP3      2537            0.0000000000
     26327      2697  TIP3      H2             13.6485398876       30.3638982856       38.7174528680  TIP3      2537            0.0000000000
     26328      2698  TIP3      OH2             9.2582255673       26.7654091373       35.5530851895  TIP3      2538            0.0000000000
     26329      2698  TIP3      H1              9.4200339363       26.0902815688       34.8659822861  TIP3      2538            0.0000000000
     26330      2698  TIP3      H2              9.3295079817       27.5662323628       35.0036214343  TIP3      2538            0.0000000000
     26331      2699  TIP3      OH2             9.5643981993       24.7563779570       33.9039184924  TIP3      2539            0.0000000000
     26332      2699  TIP3      H1             10.2087759980       25.1932302340       33.2974888340  TIP3      2539            0.0000000000
     26333      2699  TIP3      H2              8.7711525130       24.8218007623       33.3178501468  TIP3      2539            0.0000000000
     26334      2700  TIP3      OH2            10.8848938850       30.6540621968       34.2293019501  TIP3      2540            0.0000000000
     26335      2700  TIP3      H1             11.4264562194       30.2750404672       33.4978407317  TIP3      2540            0.0000000000
     26336      2700  TIP3      H2             10.2581015124       31.1750850977       33.6756994018  TIP3      2540            0.0000000000
     26337      2701  TIP3      OH2            15.0140045629       28.1020032314       38.7386327907  TIP3      2541            0.0000000000
     26338      2701  TIP3      H1             15.0242057155       27.2374446485       39.2177534923  TIP3      2541            0.0000000000
     26339      2701  TIP3      H2             15.9673548200       28.2379025592       38.5732033250  TIP3      2541            0.0000000000
     26340      2702  TIP3      OH2            16.9085247265       30.9419689524       37.0576337793  TIP3      2542            0.0000000000
     26341      2702  TIP3      H1             16.4157877995       31.5416627532       36.4513476828  TIP3      2542            0.0000000000
     26342      2702  TIP3      H2             17.8221972835       31.1525990434       36.7765313375  TIP3      2542            0.0000000000
     26343      2703  TIP3      OH2             7.5032764549       27.5065767841       38.0613712557  TIP3      2543            0.0000000000
     26344      2703  TIP3      H1              6.9131358923       26.9020710442       37.5635336793  TIP3      2543            0.0000000000
     26345      2703  TIP3      H2              8.1360248085       27.7318142004       37.3595465341  TIP3      2543            0.0000000000
     26346      2704  TIP3      OH2            10.1359363532       22.1718725813       33.9287855986  TIP3      2544            0.0000000000
     26347      2704  TIP3      H1              9.7887457587       23.0852493634       33.8022662928  TIP3      2544            0.0000000000
     26348      2704  TIP3      H2              9.6286228220       21.6705597987       33.2547404960  TIP3      2544            0.0000000000
     26349      2705  TIP3      OH2            11.5955097817       26.3458092584       37.6903424138  TIP3      2545            0.0000000000
     26350      2705  TIP3      H1             11.2802244949       26.0683597243       38.5755279618  TIP3      2545            0.0000000000
     26351      2705  TIP3      H2             10.7458970889       26.5537045818       37.2724458811  TIP3      2545            0.0000000000
     26352      2706  TIP3      OH2            14.4097253470       25.4790177444       36.5989217962  TIP3      2546            0.0000000000
     26353      2706  TIP3      H1             13.5077546388       25.5000129349       36.9660962628  TIP3      2546            0.0000000000
     26354      2706  TIP3      H2             14.8917295864       25.0124955133       37.3243338494  TIP3      2546            0.0000000000
     26355      2707  TIP3      OH2            15.6844824953       23.9978722831       38.4639239317  TIP3      2547            0.0000000000
     26356      2707  TIP3      H1             15.5142855733       23.0268469365       38.4326135990  TIP3      2547            0.0000000000
     26357      2707  TIP3      H2             15.4727154776       24.2179531897       39.3898340875  TIP3      2547            0.0000000000
     26358      2708  TIP3      OH2             6.1114827785       25.3628505033       37.1424752504  TIP3      2548            0.0000000000
     26359      2708  TIP3      H1              5.7680743190       24.6594021902       36.5595797738  TIP3      2548            0.0000000000
     26360      2708  TIP3      H2              6.5936888877       24.8279743977       37.7907615211  TIP3      2548            0.0000000000
     26361      2709  TIP3      OH2            10.4973039365       21.4336683944       36.6575325319  TIP3      2549            0.0000000000
     26362      2709  TIP3      H1             11.1425386582       20.7247191332       36.8562817775  TIP3      2549            0.0000000000
     26363      2709  TIP3      H2             10.4512554143       21.2923801108       35.6918648763  TIP3      2549            0.0000000000
     26364      2710  TIP3      OH2            10.2536399131       22.8190699897       38.9803857719  TIP3      2550            0.0000000000
     26365      2710  TIP3      H1             10.3418505328       22.0627598004       38.3681196294  TIP3      2550            0.0000000000
     26366      2710  TIP3      H2             11.1763328556       23.0568838659       39.1475678958  TIP3      2550            0.0000000000
     26367      2711  TIP3      OH2             3.2736716618       35.0877927452       20.9698903445  TIP3      2551            0.0000000000
     26368      2711  TIP3      H1              3.9071879817       35.6145326753       20.4610854146  TIP3      2551            0.0000000000
     26369      2711  TIP3      H2              3.2418029482       34.2489354846       20.5013840982  TIP3      2551            0.0000000000
     26370      2712  TIP3      OH2            18.6583419291       34.3797962714       38.4056710056  TIP3      2552            0.0000000000
     26371      2712  TIP3      H1             17.8444381664       34.9443351124       38.3585670775  TIP3      2552            0.0000000000
     26372      2712  TIP3      H2             19.3760221352       35.0118472666       38.2029695387  TIP3      2552            0.0000000000
     26373      2713  TIP3      OH2            20.1899845209       31.9554378540       23.7098529672  TIP3      2553            0.0000000000
     26374      2713  TIP3      H1             20.9347627668       32.5755928804       23.8515861612  TIP3      2553            0.0000000000
     26375      2713  TIP3      H2             19.9610750907       31.6630351949       24.6199260899  TIP3      2553            0.0000000000
     26376      2714  TIP3      OH2            20.2775126829       30.4597298384       26.1921007578  TIP3      2554            0.0000000000
     26377      2714  TIP3      H1             19.8904276913       29.8935997059       26.8831981729  TIP3      2554            0.0000000000
     26378      2714  TIP3      H2             21.0053845526       30.8669020564       26.6846880837  TIP3      2554            0.0000000000
     26379      2715  TIP3      OH2            19.8700436260       33.8414776433       31.0082898296  TIP3      2555            0.0000000000
     26380      2715  TIP3      H1             20.3101357620       33.1919076285       30.4341392449  TIP3      2555            0.0000000000
     26381      2715  TIP3      H2             20.5829041119       34.3095542902       31.4763157619  TIP3      2555            0.0000000000
     26382      2716  TIP3      OH2            20.6587713754       29.6416364009       22.2925483386  TIP3      2556            0.0000000000
     26383      2716  TIP3      H1             20.5260472486       29.8683260479       21.3439351995  TIP3      2556            0.0000000000
     26384      2716  TIP3      H2             20.3764372207       30.4729451834       22.7288360230  TIP3      2556            0.0000000000
     26385      2717  TIP3      OH2            17.5210791119       28.8936819364       26.3556496887  TIP3      2557            0.0000000000
     26386      2717  TIP3      H1             18.2855026358       28.3386106438       26.6263351973  TIP3      2557            0.0000000000
     26387      2717  TIP3      H2             17.4628902627       29.4319077321       27.1500131323  TIP3      2557            0.0000000000
     26388      2718  TIP3      OH2             3.3558409396       31.7119321537       30.7548941704  TIP3      2558            0.0000000000
     26389      2718  TIP3      H1              3.4352371197       31.3489370682       29.8468657595  TIP3      2558            0.0000000000
     26390      2718  TIP3      H2              4.1788797129       31.3656891917       31.1768497010  TIP3      2558            0.0000000000
     26391      2719  TIP3      OH2            19.7390859393       30.9182414216       36.4462269382  TIP3      2559            0.0000000000
     26392      2719  TIP3      H1             20.1302236270       30.3586808725       37.1639617989  TIP3      2559            0.0000000000
     26393      2719  TIP3      H2             20.4384423006       31.5788813182       36.2600485912  TIP3      2559            0.0000000000
     26394      2720  TIP3      OH2            20.7674152693       28.7605816762       37.6675453794  TIP3      2560            0.0000000000
     26395      2720  TIP3      H1             19.9086662611       28.3929463385       37.3535497989  TIP3      2560            0.0000000000
     26396      2720  TIP3      H2             21.3736253867       28.0299936040       37.3914819398  TIP3      2560            0.0000000000
     26397      2721  TIP3      OH2            17.8987487469       26.8120367583       24.6880522874  TIP3      2561            0.0000000000
     26398      2721  TIP3      H1             18.1280867853       25.9507607133       25.0915973086  TIP3      2561            0.0000000000
     26399      2721  TIP3      H2             18.7996928392       27.0971620392       24.4779562707  TIP3      2561            0.0000000000
     26400      2722  TIP3      OH2            18.8507103174       26.5972332435       30.6078889086  TIP3      2562            0.0000000000
     26401      2722  TIP3      H1             19.3223237012       27.0206449232       29.8499213786  TIP3      2562            0.0000000000
     26402      2722  TIP3      H2             18.8470636036       27.3428382348       31.2213599928  TIP3      2562            0.0000000000
     26403      2723  TIP3      OH2            18.8096017058       27.8567126406       33.1168771982  TIP3      2563            0.0000000000
     26404      2723  TIP3      H1             17.8626168035       28.0973928892       33.1732649052  TIP3      2563            0.0000000000
     26405      2723  TIP3      H2             19.1484315887       28.5917787105       32.5585244668  TIP3      2563            0.0000000000
     26406      2724  TIP3      OH2             3.4429753833       26.1781894513       36.5980155993  TIP3      2564            0.0000000000
     26407      2724  TIP3      H1              4.2435459556       26.7242429616       36.7526439347  TIP3      2564            0.0000000000
     26408      2724  TIP3      H2              3.7662469164       25.5400469010       35.9278646328  TIP3      2564            0.0000000000
     26409      2725  TIP3      OH2            21.1143667458       22.3138119817       38.2674634565  TIP3      2565            0.0000000000
     26410      2725  TIP3      H1             21.5334257829       21.5822724245       37.7525838431  TIP3      2565            0.0000000000
     26411      2725  TIP3      H2             21.0368895092       23.0094658040       37.5801294089  TIP3      2565            0.0000000000
     26412      2726  TIP3      OH2            18.7510057912       24.4781688061       25.1849202313  TIP3      2566            0.0000000000
     26413      2726  TIP3      H1             19.0022186428       23.7938142796       25.8332238672  TIP3      2566            0.0000000000
     26414      2726  TIP3      H2             17.9158267260       24.1549604024       24.8280956896  TIP3      2566            0.0000000000
     26415      2727  TIP3      OH2             4.1872999880       24.7043156440       30.6050624238  TIP3      2567            0.0000000000
     26416      2727  TIP3      H1              4.4373321418       23.7604610596       30.5465166202  TIP3      2567            0.0000000000
     26417      2727  TIP3      H2              4.7736300374       25.0618364253       31.2743549835  TIP3      2567            0.0000000000
     26418      2728  TIP3      OH2             2.9110953513       27.7862905226       30.8981015758  TIP3      2568            0.0000000000
     26419      2728  TIP3      H1              3.5357012032       27.9826427467       30.1640200498  TIP3      2568            0.0000000000
     26420      2728  TIP3      H2              2.8842768756       28.6606539344       31.3384208249  TIP3      2568            0.0000000000
     26421      2729  TIP3      OH2            20.4485773258       24.3481562532       36.6386947873  TIP3      2569            0.0000000000
     26422      2729  TIP3      H1             19.7620376602       24.4372053773       37.3259184917  TIP3      2569            0.0000000000
     26423      2729  TIP3      H2             19.9207550011       23.9861094666       35.9085855461  TIP3      2569            0.0000000000
     26424      2730  TIP3      OH2             2.7897761354       24.5639964569       24.9587276729  TIP3      2570            0.0000000000
     26425      2730  TIP3      H1              1.9127519800       24.9710442292       25.0929837941  TIP3      2570            0.0000000000
     26426      2730  TIP3      H2              2.8036472095       24.5240110430       23.9918403378  TIP3      2570            0.0000000000
     26427      2731  TIP3      OH2             2.6987966152       22.5018258140       33.1074705821  TIP3      2571            0.0000000000
     26428      2731  TIP3      H1              2.0348706512       22.2591128183       33.7844421228  TIP3      2571            0.0000000000
     26429      2731  TIP3      H2              2.1868657152       23.1144632802       32.5350432802  TIP3      2571            0.0000000000
     26430      2732  TIP3      OH2            19.3705961781       22.0993716683       34.7959341997  TIP3      2572            0.0000000000
     26431      2732  TIP3      H1             18.5238661257       22.3937815276       34.4530727094  TIP3      2572            0.0000000000
     26432      2732  TIP3      H2             19.4575034703       21.1617696486       34.4784186250  TIP3      2572            0.0000000000
     26433      2733  TIP3      OH2            13.0459585998       23.1055321360       29.4099023382  TIP3      2573            0.0000000000
     26434      2733  TIP3      H1             12.1849216677       23.0140212898       29.8565314556  TIP3      2573            0.0000000000
     26435      2733  TIP3      H2             12.8582468686       22.8770477479       28.4748567144  TIP3      2573            0.0000000000
     26436      2734  TIP3      OH2            18.3781222821       22.0199580596       29.1323190594  TIP3      2574            0.0000000000
     26437      2734  TIP3      H1             18.8194992363       22.5988630208       28.4685321526  TIP3      2574            0.0000000000
     26438      2734  TIP3      H2             17.4645522246       22.0191822823       28.7552000515  TIP3      2574            0.0000000000
     26439      2735  TIP3      OH2            19.8029477373       22.9807470608       27.1332529556  TIP3      2575            0.0000000000
     26440      2735  TIP3      H1             20.5894134901       22.5724832222       26.7081215842  TIP3      2575            0.0000000000
     26441      2735  TIP3      H2             20.1784581288       23.8922831769       27.2219956851  TIP3      2575            0.0000000000
     26442      2736  TIP3      OH2             5.2184376778       22.6740930693       27.2649442485  TIP3      2576            0.0000000000
     26443      2736  TIP3      H1              4.3729077607       22.3158307556       26.8967888061  TIP3      2576            0.0000000000
     26444      2736  TIP3      H2              5.7895110420       21.8865824123       27.1246592482  TIP3      2576            0.0000000000
     26445      2737  TIP3      OH2             3.8053633491       22.6500296561       22.4241468128  TIP3      2577            0.0000000000
     26446      2737  TIP3      H1              4.5458802905       23.0599354744       22.8792466459  TIP3      2577            0.0000000000
     26447      2737  TIP3      H2              3.2398575009       22.3610156030       23.1597650788  TIP3      2577            0.0000000000
     26448      2738  TIP3      OH2            10.9888645274       21.2663530283       27.5870797867  TIP3      2578            0.0000000000
     26449      2738  TIP3      H1             11.7742459105       21.3952585831       27.0244422923  TIP3      2578            0.0000000000
     26450      2738  TIP3      H2             11.3705116430       21.0048108203       28.4476993734  TIP3      2578            0.0000000000
     26451      2739  TIP3      OH2            15.8679540279       22.0370096901       28.0076875417  TIP3      2579            0.0000000000
     26452      2739  TIP3      H1             15.3767154527       22.5409565803       27.3501371801  TIP3      2579            0.0000000000
     26453      2739  TIP3      H2             15.1640304499       21.4155545713       28.2903773596  TIP3      2579            0.0000000000
     26454      2740  TIP3      OH2            16.5507875019       21.7174903155       22.8110659415  TIP3      2580            0.0000000000
     26455      2740  TIP3      H1             16.4096082027       22.6408548224       23.1231768487  TIP3      2580            0.0000000000
     26456      2740  TIP3      H2             16.0823292586       21.2687665588       23.5401181498  TIP3      2580            0.0000000000
     26457      2741  TIP3      OH2            10.1234778371       23.4952813269       24.1871188130  TIP3      2581            0.0000000000
     26458      2741  TIP3      H1             10.8466149472       24.1690991036       24.1219949370  TIP3      2581            0.0000000000
     26459      2741  TIP3      H2              9.3674734178       23.9221937497       23.7592082251  TIP3      2581            0.0000000000
     26460      2742  TIP3      OH2             4.9075715317       22.7025911200       36.3028029482  TIP3      2582            0.0000000000
     26461      2742  TIP3      H1              4.4628873119       21.8336878600       36.2633332527  TIP3      2582            0.0000000000
     26462      2742  TIP3      H2              5.7343215151       22.4769844751       36.7701031267  TIP3      2582            0.0000000000
     26463      2743  TIP3      OH2             7.3151265281       22.4307606035       37.9320150161  TIP3      2583            0.0000000000
     26464      2743  TIP3      H1              8.0747262326       21.8172008574       37.9826327741  TIP3      2583            0.0000000000
     26465      2743  TIP3      H2              6.6724738354       21.8957415550       38.4613405530  TIP3      2583            0.0000000000
     26466      2744  TIP3      OH2            15.5048813500       21.3681789866       38.2631424584  TIP3      2584            0.0000000000
     26467      2744  TIP3      H1             15.4978254642       21.1571970106       39.2256924099  TIP3      2584            0.0000000000
     26468      2744  TIP3      H2             16.4525083216       21.2233200903       38.0692319931  TIP3      2584            0.0000000000
     26469      2745  TIP3      OH2            33.7148607963       31.7813654326       26.0406347334  TIP3      2585            0.0000000000
     26470      2745  TIP3      H1             33.4727890631       32.6604782400       26.3803462305  TIP3      2585            0.0000000000
     26471      2745  TIP3      H2             32.8340712660       31.3887525975       25.9023727518  TIP3      2585            0.0000000000
     26472      2746  TIP3      OH2            31.6957484374       30.8843442630       30.9441360337  TIP3      2586            0.0000000000
     26473      2746  TIP3      H1             32.0874206400       30.0293361057       31.2149211915  TIP3      2586            0.0000000000
     26474      2746  TIP3      H2             31.4001655480       30.6879619961       30.0373919252  TIP3      2586            0.0000000000
     26475      2747  TIP3      OH2            24.4456414172       30.6386189984       32.2166733858  TIP3      2587            0.0000000000
     26476      2747  TIP3      H1             24.7810835993       29.7242037480       32.3160285944  TIP3      2587            0.0000000000
     26477      2747  TIP3      H2             25.1847427012       31.0681201389       31.7505518269  TIP3      2587            0.0000000000
     26478      2748  TIP3      OH2            25.3122343741       34.2472521362       30.5751717519  TIP3      2588            0.0000000000
     26479      2748  TIP3      H1             25.1721012024       33.3978432324       30.1105125567  TIP3      2588            0.0000000000
     26480      2748  TIP3      H2             26.1016000238       34.5716734085       30.0944101897  TIP3      2588            0.0000000000
     26481      2749  TIP3      OH2            21.9003045894       28.2074524217       25.6984351028  TIP3      2589            0.0000000000
     26482      2749  TIP3      H1             21.4129970459       28.9488833776       26.1022848825  TIP3      2589            0.0000000000
     26483      2749  TIP3      H2             21.3341311183       27.9898248975       24.9380536051  TIP3      2589            0.0000000000
     26484      2750  TIP3      OH2            22.3403003051       30.9972393854       28.2999038495  TIP3      2590            0.0000000000
     26485      2750  TIP3      H1             22.5940534697       30.0585498117       28.3687291211  TIP3      2590            0.0000000000
     26486      2750  TIP3      H2             23.2014650390       31.4221066103       28.1676906246  TIP3      2590            0.0000000000
     26487      2751  TIP3      OH2            30.4248514149       33.3304742366       30.9752676011  TIP3      2591            0.0000000000
     26488      2751  TIP3      H1             30.6557487856       32.7502638122       30.2419544888  TIP3      2591            0.0000000000
     26489      2751  TIP3      H2             31.2770144196       33.3248422056       31.4637667918  TIP3      2591            0.0000000000
     26490      2752  TIP3      OH2            33.0112517781       27.2731261691       30.6576013135  TIP3      2592            0.0000000000
     26491      2752  TIP3      H1             33.2117475531       26.3871291691       31.0144602112  TIP3      2592            0.0000000000
     26492      2752  TIP3      H2             33.9189617573       27.6125067237       30.4625987518  TIP3      2592            0.0000000000
     26493      2753  TIP3      OH2            26.2631563102       25.2475601034       28.1579762909  TIP3      2593            0.0000000000
     26494      2753  TIP3      H1             26.5715025891       25.8708213897       27.4553515252  TIP3      2593            0.0000000000
     26495      2753  TIP3      H2             27.0641780637       24.7129094184       28.2604277831  TIP3      2593            0.0000000000
     26496      2754  TIP3      OH2           -35.2820895555       25.9288864031       26.1829749208  TIP3      2594            0.0000000000
     26497      2754  TIP3      H1            -35.4638339908       25.3174309176       26.9357883140  TIP3      2594            0.0000000000
     26498      2754  TIP3      H2            -34.3621709238       25.6379748817       26.1125955299  TIP3      2594            0.0000000000
     26499      2755  TIP3      OH2            23.4659204721       28.3721308333       28.7992327776  TIP3      2595            0.0000000000
     26500      2755  TIP3      H1             23.8652520529       27.7619568260       29.4397876573  TIP3      2595            0.0000000000
     26501      2755  TIP3      H2             23.7711156157       27.9522100703       27.9658130196  TIP3      2595            0.0000000000
     26502      2756  TIP3      OH2            29.5065387201       28.9311593357       26.9868533872  TIP3      2596            0.0000000000
     26503      2756  TIP3      H1             30.1028811136       28.5179143104       27.6406623675  TIP3      2596            0.0000000000
     26504      2756  TIP3      H2             29.2013301822       29.6813431406       27.5437580260  TIP3      2596            0.0000000000
     26505      2757  TIP3      OH2            24.9630599191       24.6934462618       31.9993692401  TIP3      2597            0.0000000000
     26506      2757  TIP3      H1             24.9392362530       25.3478730724       31.2753738193  TIP3      2597            0.0000000000
     26507      2757  TIP3      H2             24.2541883068       25.0037005705       32.5823256239  TIP3      2597            0.0000000000
     26508      2758  TIP3      OH2            33.1047941976       34.5039275398       26.0267207195  TIP3      2598            0.0000000000
     26509      2758  TIP3      H1             33.0773452986       34.3433930072       25.0576170859  TIP3      2598            0.0000000000
     26510      2758  TIP3      H2             32.4460383814       35.2282842990       26.0996149781  TIP3      2598            0.0000000000
     26511      2759  TIP3      OH2            28.1309160996       32.5547922172       32.1471758121  TIP3      2599            0.0000000000
     26512      2759  TIP3      H1             27.7794445514       33.3993861429       32.5050210793  TIP3      2599            0.0000000000
     26513      2759  TIP3      H2             28.8419819674       32.9255039897       31.5645556668  TIP3      2599            0.0000000000
     26514      2760  TIP3      OH2            25.4670666967       26.6198711583       30.2563898866  TIP3      2600            0.0000000000
     26515      2760  TIP3      H1             26.2027696079       27.0925549790       30.7268407576  TIP3      2600            0.0000000000
     26516      2760  TIP3      H2             25.9666330279       26.1966275868       29.5074686609  TIP3      2600            0.0000000000
     26517      2761  TIP3      OH2            26.7960677683       34.5686877433       33.5033393696  TIP3      2601            0.0000000000
     26518      2761  TIP3      H1             27.0716976854       35.1856162481       32.7958639855  TIP3      2601            0.0000000000
     26519      2761  TIP3      H2             25.8140537008       34.6398076478       33.4632528982  TIP3      2601            0.0000000000
     26520      2762  TIP3      OH2            22.3781360305       33.6362643780       23.7322697790  TIP3      2602            0.0000000000
     26521      2762  TIP3      H1             22.4809607120       33.7557338911       22.7590492233  TIP3      2602            0.0000000000
     26522      2762  TIP3      H2             22.4719411861       34.5772824891       23.9737191098  TIP3      2602            0.0000000000
     26523      2763  TIP3      OH2            29.7954413436       21.7092444720       30.0569673551  TIP3      2603            0.0000000000
     26524      2763  TIP3      H1             29.4149680742       20.8274013449       29.8615374610  TIP3      2603            0.0000000000
     26525      2763  TIP3      H2             29.0174041349       22.2496650903       29.8222683735  TIP3      2603            0.0000000000
     26526      2764  TIP3      OH2            31.7522100941       30.7649853900       24.3944826682  TIP3      2604            0.0000000000
     26527      2764  TIP3      H1             31.1162105056       31.4262915548       24.0733429205  TIP3      2604            0.0000000000
     26528      2764  TIP3      H2             32.5959198254       31.0028936993       23.9406540721  TIP3      2604            0.0000000000
     26529      2765  TIP3      OH2            26.1598858419       31.8841145849       26.5200623410  TIP3      2605            0.0000000000
     26530      2765  TIP3      H1             26.3985142311       31.3852366604       25.7172266928  TIP3      2605            0.0000000000
     26531      2765  TIP3      H2             26.9299717930       31.6398594168       27.0732366442  TIP3      2605            0.0000000000
     26532      2766  TIP3      OH2            27.5316622019       34.6065050523       28.8734175007  TIP3      2606            0.0000000000
     26533      2766  TIP3      H1             27.8749483794       33.7012263356       28.9880355658  TIP3      2606            0.0000000000
     26534      2766  TIP3      H2             27.9935087440       35.0742312062       29.6156132080  TIP3      2606            0.0000000000
     26535      2767  TIP3      OH2            27.4268634024       30.1638367655       31.3602319505  TIP3      2607            0.0000000000
     26536      2767  TIP3      H1             27.6449355994       30.3579681026       30.4131500579  TIP3      2607            0.0000000000
     26537      2767  TIP3      H2             27.8435671106       30.9806600112       31.7125706904  TIP3      2607            0.0000000000
     26538      2768  TIP3      OH2            28.0242564977       34.0506992154       35.9219937082  TIP3      2608            0.0000000000
     26539      2768  TIP3      H1             27.1312472910       34.4470820126       36.0619570822  TIP3      2608            0.0000000000
     26540      2768  TIP3      H2             28.2844614120       34.5846026916       35.1457202447  TIP3      2608            0.0000000000
     26541      2769  TIP3      OH2            34.1140990918       31.1841053961       23.1847714886  TIP3      2609            0.0000000000
     26542      2769  TIP3      H1             34.5093223025       31.1683046237       24.0760877230  TIP3      2609            0.0000000000
     26543      2769  TIP3      H2             34.3188342298       32.0967146227       22.9109295864  TIP3      2609            0.0000000000
     26544      2770  TIP3      OH2            25.5361427412       30.3337149472       34.9541311189  TIP3      2610            0.0000000000
     26545      2770  TIP3      H1             25.4259341048       30.2525924105       35.9257247667  TIP3      2610            0.0000000000
     26546      2770  TIP3      H2             25.0235998361       31.1353241702       34.7873818307  TIP3      2610            0.0000000000
     26547      2771  TIP3      OH2            26.0734600360       30.4173308576       23.9852270204  TIP3      2611            0.0000000000
     26548      2771  TIP3      H1             25.7237275996       31.2402204534       23.5818486211  TIP3      2611            0.0000000000
     26549      2771  TIP3      H2             25.2795736776       29.9275953178       24.2093886651  TIP3      2611            0.0000000000
     26550      2772  TIP3      OH2            21.6373162963       33.0258882798       33.4147607386  TIP3      2612            0.0000000000
     26551      2772  TIP3      H1             21.4051122729       32.8500500099       32.4932197657  TIP3      2612            0.0000000000
     26552      2772  TIP3      H2             22.1598533163       32.2346261338       33.5878824257  TIP3      2612            0.0000000000
     26553      2773  TIP3      OH2            24.0961298308       34.3508791301       33.7847690230  TIP3      2613            0.0000000000
     26554      2773  TIP3      H1             24.3411777720       34.5413467770       34.7172830423  TIP3      2613            0.0000000000
     26555      2773  TIP3      H2             23.2292188383       33.9393453098       33.8850823903  TIP3      2613            0.0000000000
     26556      2774  TIP3      OH2            27.4602296727       23.2498924489       30.7255133406  TIP3      2614            0.0000000000
     26557      2774  TIP3      H1             27.2687051259       22.5810990706       30.0277846483  TIP3      2614            0.0000000000
     26558      2774  TIP3      H2             26.7484558175       23.8728572210       30.5223129346  TIP3      2614            0.0000000000
     26559      2775  TIP3      OH2            32.2018322651       22.1765763571       34.0529080513  TIP3      2615            0.0000000000
     26560      2775  TIP3      H1             32.6875940400       21.6639596057       34.7369156860  TIP3      2615            0.0000000000
     26561      2775  TIP3      H2             31.3665612126       22.3609801661       34.5263273384  TIP3      2615            0.0000000000
     26562      2776  TIP3      OH2            27.2735864584       27.5268844661       32.0134979253  TIP3      2616            0.0000000000
     26563      2776  TIP3      H1             26.4241753763       27.8069175085       32.3891857528  TIP3      2616            0.0000000000
     26564      2776  TIP3      H2             27.5716823152       28.3598478593       31.5902007655  TIP3      2616            0.0000000000
     26565      2777  TIP3      OH2            26.7655593755       27.3508713583       26.4897380111  TIP3      2617            0.0000000000
     26566      2777  TIP3      H1             27.3225629704       28.1432657433       26.5258006525  TIP3      2617            0.0000000000
     26567      2777  TIP3      H2             27.0277526729       27.0517373138       25.5863353026  TIP3      2617            0.0000000000
     26568      2778  TIP3      OH2            32.7006416527       28.5291244611       25.5350917951  TIP3      2618            0.0000000000
     26569      2778  TIP3      H1             32.1710684018       29.3073813032       25.2582255854  TIP3      2618            0.0000000000
     26570      2778  TIP3      H2             32.9021958834       28.1074892435       24.6772197919  TIP3      2618            0.0000000000
     26571      2779  TIP3      OH2            31.2170748888       28.4574328448       37.1769966135  TIP3      2619            0.0000000000
     26572      2779  TIP3      H1             30.9554083155       27.5138589768       37.3349503063  TIP3      2619            0.0000000000
     26573      2779  TIP3      H2             32.1826701395       28.3868943515       37.1410466558  TIP3      2619            0.0000000000
     26574      2780  TIP3      OH2            33.8321663897       27.9333967437       28.0270724883  TIP3      2620            0.0000000000
     26575      2780  TIP3      H1             33.0060511277       28.3768214553       27.7849046445  TIP3      2620            0.0000000000
     26576      2780  TIP3      H2             33.7948158517       27.1574941598       27.4528207002  TIP3      2620            0.0000000000
     26577      2781  TIP3      OH2            24.5949853400       27.8785788762       33.1306976210  TIP3      2621            0.0000000000
     26578      2781  TIP3      H1             24.8967069220       28.1314991092       34.0123043196  TIP3      2621            0.0000000000
     26579      2781  TIP3      H2             24.2902499071       26.9606953532       33.2882831699  TIP3      2621            0.0000000000
     26580      2782  TIP3      OH2            21.2572230390       25.1743631541       27.4622682838  TIP3      2622            0.0000000000
     26581      2782  TIP3      H1             21.9460602997       25.5559986113       28.0372433512  TIP3      2622            0.0000000000
     26582      2782  TIP3      H2             20.6845682241       25.9814856500       27.4413965066  TIP3      2622            0.0000000000
     26583      2783  TIP3      OH2            23.3246607758       25.9723168201       23.3100488462  TIP3      2623            0.0000000000
     26584      2783  TIP3      H1             23.5173384291       25.8845126621       22.3719535090  TIP3      2623            0.0000000000
     26585      2783  TIP3      H2             22.6539708174       26.6920814326       23.3207298633  TIP3      2623            0.0000000000
     26586      2784  TIP3      OH2            33.0388838089       29.1417402802       32.5995112972  TIP3      2624            0.0000000000
     26587      2784  TIP3      H1             33.4201470240       28.4986442481       31.9731747702  TIP3      2624            0.0000000000
     26588      2784  TIP3      H2             32.5953977309       28.5428941236       33.2279924444  TIP3      2624            0.0000000000
     26589      2785  TIP3      OH2            29.7628453989       25.4854012849       29.1700450178  TIP3      2625            0.0000000000
     26590      2785  TIP3      H1             29.3984189156       25.3325957106       28.2760692546  TIP3      2625            0.0000000000
     26591      2785  TIP3      H2             30.5101045199       24.8483653023       29.1578467098  TIP3      2625            0.0000000000
     26592      2786  TIP3      OH2            24.0082133001       27.0418840096       26.5333429585  TIP3      2626            0.0000000000
     26593      2786  TIP3      H1             23.1741432052       27.4174856776       26.1333103066  TIP3      2626            0.0000000000
     26594      2786  TIP3      H2             24.6832566403       27.5492355129       26.0486466522  TIP3      2626            0.0000000000
     26595      2787  TIP3      OH2            27.5704518007       27.1643639788       24.0319349016  TIP3      2627            0.0000000000
     26596      2787  TIP3      H1             28.5334812298       27.0995164883       24.1679386014  TIP3      2627            0.0000000000
     26597      2787  TIP3      H2             27.5874352734       27.7380749603       23.2372136037  TIP3      2627            0.0000000000
     26598      2788  TIP3      OH2            33.4552046432       24.6192851281       31.0949594519  TIP3      2628            0.0000000000
     26599      2788  TIP3      H1             32.6683997562       24.4700617441       30.5231533386  TIP3      2628            0.0000000000
     26600      2788  TIP3      H2             34.1210377708       24.1705587906       30.5389232850  TIP3      2628            0.0000000000
     26601      2789  TIP3      OH2            25.5967474453       31.6782442348       37.5129076677  TIP3      2629            0.0000000000
     26602      2789  TIP3      H1             25.8194091385       32.6158745515       37.3288041397  TIP3      2629            0.0000000000
     26603      2789  TIP3      H2             24.7495115917       31.8400136308       37.9576984202  TIP3      2629            0.0000000000
     26604      2790  TIP3      OH2            30.9726708401       28.1411243902       29.1875754411  TIP3      2630            0.0000000000
     26605      2790  TIP3      H1             31.8529741863       28.0244221334       29.6207771115  TIP3      2630            0.0000000000
     26606      2790  TIP3      H2             30.5085338315       27.3196373111       29.4670305364  TIP3      2630            0.0000000000
     26607      2791  TIP3      OH2            26.1064502489       23.8929486678       25.5221762031  TIP3      2631            0.0000000000
     26608      2791  TIP3      H1             26.3023522914       23.0725616563       25.9924303620  TIP3      2631            0.0000000000
     26609      2791  TIP3      H2             27.0113383260       24.2687479898       25.5028937917  TIP3      2631            0.0000000000
     26610      2792  TIP3      OH2            29.7838779990       26.4620530117       32.0956834502  TIP3      2632            0.0000000000
     26611      2792  TIP3      H1             29.0363521237       27.0723656205       31.9839187497  TIP3      2632            0.0000000000
     26612      2792  TIP3      H2             30.4697096032       27.0336022778       32.4734775119  TIP3      2632            0.0000000000
     26613      2793  TIP3      OH2            29.6840401231       32.2868384690       23.4173205916  TIP3      2633            0.0000000000
     26614      2793  TIP3      H1             29.2959963292       31.5353659581       23.8950361884  TIP3      2633            0.0000000000
     26615      2793  TIP3      H2             29.5788207489       33.0008408109       24.0805151977  TIP3      2633            0.0000000000
     26616      2794  TIP3      OH2            33.3449528848       26.0555934327       21.4784604375  TIP3      2634            0.0000000000
     26617      2794  TIP3      H1             32.3808013197       26.1417894764       21.6756377669  TIP3      2634            0.0000000000
     26618      2794  TIP3      H2             33.6411678045       26.9337398834       21.7624545810  TIP3      2634            0.0000000000
     26619      2795  TIP3      OH2            31.7807321256       32.8275741274       35.0486127402  TIP3      2635            0.0000000000
     26620      2795  TIP3      H1             31.6891538923       32.6846169349       36.0034809077  TIP3      2635            0.0000000000
     26621      2795  TIP3      H2             31.7991893867       33.7930157301       34.9609373087  TIP3      2635            0.0000000000
     26622      2796  TIP3      OH2            34.4196727057       28.1709137243       23.1831908058  TIP3      2636            0.0000000000
     26623      2796  TIP3      H1             35.0195433385       28.2195522689       23.9728253488  TIP3      2636            0.0000000000
     26624      2796  TIP3      H2             34.3231312351       29.1212420433       22.9768687835  TIP3      2636            0.0000000000
     26625      2797  TIP3      OH2            24.8028749260       32.1614032082       29.0168406438  TIP3      2637            0.0000000000
     26626      2797  TIP3      H1             25.5509576082       32.3088175330       28.4004247288  TIP3      2637            0.0000000000
     26627      2797  TIP3      H2             24.8840397520       31.2132280927       29.1709178713  TIP3      2637            0.0000000000
     26628      2798  TIP3      OH2            32.4095512332       34.0956399926       23.3166416516  TIP3      2638            0.0000000000
     26629      2798  TIP3      H1             32.2776140953       34.7460653230       22.6118023922  TIP3      2638            0.0000000000
     26630      2798  TIP3      H2             32.0498731179       33.2809891178       22.9425187853  TIP3      2638            0.0000000000
     26631      2799  TIP3      OH2            22.5373548623       30.8256780626       35.5225696379  TIP3      2639            0.0000000000
     26632      2799  TIP3      H1             22.6677818350       30.3062279295       36.3430395108  TIP3      2639            0.0000000000
     26633      2799  TIP3      H2             23.2015613745       30.3996923630       34.9613187283  TIP3      2639            0.0000000000
     26634      2800  TIP3      OH2            29.0712594986       29.9189302480       36.5708215476  TIP3      2640            0.0000000000
     26635      2800  TIP3      H1             28.8177878828       29.0975378254       36.1061858364  TIP3      2640            0.0000000000
     26636      2800  TIP3      H2             30.0208378288       29.6848390067       36.6889358458  TIP3      2640            0.0000000000
     26637      2801  TIP3      OH2            28.9993148514       33.0778312731       26.0968944607  TIP3      2641            0.0000000000
     26638      2801  TIP3      H1             28.4679025928       33.8835540548       26.1953476351  TIP3      2641            0.0000000000
     26639      2801  TIP3      H2             28.8558183654       32.6075459017       26.9519273120  TIP3      2641            0.0000000000
     26640      2802  TIP3      OH2            32.8358646354       33.0643920841       32.1915646995  TIP3      2642            0.0000000000
     26641      2802  TIP3      H1             32.8042232115       32.8419847122       33.1368519095  TIP3      2642            0.0000000000
     26642      2802  TIP3      H2             32.7456932155       32.1924032325       31.7496806661  TIP3      2642            0.0000000000
     26643      2803  TIP3      OH2            23.4964931420       25.5202978756       34.0835771458  TIP3      2643            0.0000000000
     26644      2803  TIP3      H1             22.6334137143       25.9374463068       33.9791314614  TIP3      2643            0.0000000000
     26645      2803  TIP3      H2             23.1843119966       24.6566980196       34.4659404667  TIP3      2643            0.0000000000
     26646      2804  TIP3      OH2            24.9172231712       32.6537337618       23.0913294166  TIP3      2644            0.0000000000
     26647      2804  TIP3      H1             24.0109666842       32.7795449800       23.4410407966  TIP3      2644            0.0000000000
     26648      2804  TIP3      H2             24.9660759232       33.4223024451       22.5047546994  TIP3      2644            0.0000000000
     26649      2805  TIP3      OH2            32.3825477016       25.1687939444       34.2186123696  TIP3      2645            0.0000000000
     26650      2805  TIP3      H1             33.2069059265       25.2491768686       34.7318171115  TIP3      2645            0.0000000000
     26651      2805  TIP3      H2             32.5442768982       24.3872328099       33.6655783689  TIP3      2645            0.0000000000
     26652      2806  TIP3      OH2            33.1764260529       24.9359470803       24.3175778506  TIP3      2646            0.0000000000
     26653      2806  TIP3      H1             32.6019375173       25.6412964930       23.9561733817  TIP3      2646            0.0000000000
     26654      2806  TIP3      H2             33.7941438019       25.4325234924       24.8944819234  TIP3      2646            0.0000000000
     26655      2807  TIP3      OH2            30.8845828955       26.6034249900       24.9606748144  TIP3      2647            0.0000000000
     26656      2807  TIP3      H1             31.2740396569       27.3826059497       25.3971074416  TIP3      2647            0.0000000000
     26657      2807  TIP3      H2             30.3563643085       26.1769236721       25.6584229248  TIP3      2647            0.0000000000
     26658      2808  TIP3      OH2            31.2078632442       27.6843411522       34.2361016961  TIP3      2648            0.0000000000
     26659      2808  TIP3      H1             30.9673560372       27.6582975778       35.1839163922  TIP3      2648            0.0000000000
     26660      2808  TIP3      H2             31.5620468404       26.7777554613       34.0947609290  TIP3      2648            0.0000000000
     26661      2809  TIP3      OH2            31.9216271678       23.4855191815       26.3089561984  TIP3      2649            0.0000000000
     26662      2809  TIP3      H1             31.0234454566       23.8809448937       26.4070034614  TIP3      2649            0.0000000000
     26663      2809  TIP3      H2             32.3712664077       24.1460961215       25.7411306658  TIP3      2649            0.0000000000
     26664      2810  TIP3      OH2            27.3075939992       24.8464789467       22.7567021757  TIP3      2650            0.0000000000
     26665      2810  TIP3      H1             27.1922907874       25.6995261144       23.2402429563  TIP3      2650            0.0000000000
     26666      2810  TIP3      H2             28.2822136792       24.7496577954       22.7467829501  TIP3      2650            0.0000000000
     26667      2811  TIP3      OH2            25.8132725443       34.7473986579       21.3041882968  TIP3      2651            0.0000000000
     26668      2811  TIP3      H1             26.0865259958       35.0447177822       22.1895673835  TIP3      2651            0.0000000000
     26669      2811  TIP3      H2             26.2674559268       33.8798726542       21.2284034636  TIP3      2651            0.0000000000
     26670      2812  TIP3      OH2            24.4977850821       22.6451136736       29.6174922758  TIP3      2652            0.0000000000
     26671      2812  TIP3      H1             25.2486414774       22.5251687268       28.9969840911  TIP3      2652            0.0000000000
     26672      2812  TIP3      H2             24.0104423186       21.8295576958       29.4278861567  TIP3      2652            0.0000000000
     26673      2813  TIP3      OH2            22.5929008356       32.4118995602       37.8859726933  TIP3      2653            0.0000000000
     26674      2813  TIP3      H1             22.3372132843       31.6963602919       37.2905173874  TIP3      2653            0.0000000000
     26675      2813  TIP3      H2             22.8916006192       33.0884727310       37.2349314439  TIP3      2653            0.0000000000
     26676      2814  TIP3      OH2            27.4972164608       32.3851659435       20.8523660812  TIP3      2654            0.0000000000
     26677      2814  TIP3      H1             27.5141154601       31.6872817312       21.5275983327  TIP3      2654            0.0000000000
     26678      2814  TIP3      H2             28.4478955416       32.5635271011       20.7576772835  TIP3      2654            0.0000000000
     26679      2815  TIP3      OH2            29.7994277355       32.4992512228       37.3379698813  TIP3      2655            0.0000000000
     26680      2815  TIP3      H1             29.0725599630       33.0693989773       37.0106038186  TIP3      2655            0.0000000000
     26681      2815  TIP3      H2             29.4896877443       31.5983881823       37.1332391627  TIP3      2655            0.0000000000
     26682      2816  TIP3      OH2            33.3753869791       33.5002525949       20.3376473399  TIP3      2656            0.0000000000
     26683      2816  TIP3      H1             33.3865424621       34.4715055655       20.3665661749  TIP3      2656            0.0000000000
     26684      2816  TIP3      H2             32.8138863768       33.2871817809       19.5817306441  TIP3      2656            0.0000000000
     26685      2817  TIP3      OH2            23.7356790808       29.3977771865       37.6210647354  TIP3      2657            0.0000000000
     26686      2817  TIP3      H1             24.4695186786       28.7869248530       37.7803390037  TIP3      2657            0.0000000000
     26687      2817  TIP3      H2             23.7589886983       29.8548970993       38.4916156283  TIP3      2657            0.0000000000
     26688      2818  TIP3      OH2            27.7176352564       28.8962433625       34.4096458434  TIP3      2658            0.0000000000
     26689      2818  TIP3      H1             26.8948505311       29.4084252092       34.4926237774  TIP3      2658            0.0000000000
     26690      2818  TIP3      H2             28.1597786230       29.2194051909       33.6086992135  TIP3      2658            0.0000000000
     26691      2819  TIP3      OH2            32.8221469672       31.3575067590       38.3823820729  TIP3      2659            0.0000000000
     26692      2819  TIP3      H1             33.7503998433       31.1437429813       38.5823300255  TIP3      2659            0.0000000000
     26693      2819  TIP3      H2             32.3763984791       30.5149493096       38.5004955802  TIP3      2659            0.0000000000
     26694      2820  TIP3      OH2            28.7659131574       26.8298290702       35.5974536181  TIP3      2660            0.0000000000
     26695      2820  TIP3      H1             28.5278004349       25.9943944925       35.1604425287  TIP3      2660            0.0000000000
     26696      2820  TIP3      H2             28.3060188571       27.5084570791       35.0603288082  TIP3      2660            0.0000000000
     26697      2821  TIP3      OH2            28.3271357265       24.6254102611       33.2998222253  TIP3      2661            0.0000000000
     26698      2821  TIP3      H1             28.9281927786       25.3833380374       33.1010162506  TIP3      2661            0.0000000000
     26699      2821  TIP3      H2             28.1879179407       24.3853718859       32.3618750946  TIP3      2661            0.0000000000
     26700      2822  TIP3      OH2            29.8693913365       30.5668567682       33.4508762215  TIP3      2662            0.0000000000
     26701      2822  TIP3      H1             30.6637463494       30.0117755655       33.4761916439  TIP3      2662            0.0000000000
     26702      2822  TIP3      H2             30.1323691849       31.2421878328       32.7987932069  TIP3      2662            0.0000000000
     26703      2823  TIP3      OH2            34.0869397637       28.3252061468       38.2730452652  TIP3      2663            0.0000000000
     26704      2823  TIP3      H1             34.4350145959       27.5767778812       37.7370517041  TIP3      2663            0.0000000000
     26705      2823  TIP3      H2             34.7574234973       28.4766346686       38.9518486378  TIP3      2663            0.0000000000
     26706      2824  TIP3      OH2            26.2950733921       27.6555065996       37.7058334679  TIP3      2664            0.0000000000
     26707      2824  TIP3      H1             25.6952976251       26.9169981428       37.4796262016  TIP3      2664            0.0000000000
     26708      2824  TIP3      H2             27.1292159598       27.1716540640       37.7881152722  TIP3      2664            0.0000000000
     26709      2825  TIP3      OH2            29.1339509940       22.0479510297       34.0511714045  TIP3      2665            0.0000000000
     26710      2825  TIP3      H1             29.1664366973       22.9792175935       33.7504337654  TIP3      2665            0.0000000000
     26711      2825  TIP3      H2             28.5759347672       21.6593114152       33.3649710968  TIP3      2665            0.0000000000
     26712      2826  TIP3      OH2            30.2104611023       25.9899953783       37.5915436916  TIP3      2666            0.0000000000
     26713      2826  TIP3      H1             29.5400116292       25.7014162232       38.2440853212  TIP3      2666            0.0000000000
     26714      2826  TIP3      H2             29.6418485198       26.0759435933       36.7953973937  TIP3      2666            0.0000000000
     26715      2827  TIP3      OH2            32.9577595567       25.5295608366       37.0061286058  TIP3      2667            0.0000000000
     26716      2827  TIP3      H1             31.9899618210       25.3774843090       37.0714067254  TIP3      2667            0.0000000000
     26717      2827  TIP3      H2             33.3202317335       25.0712380251       37.7840755110  TIP3      2667            0.0000000000
     26718      2828  TIP3      OH2            34.9601884065       24.2106603726       38.5254405984  TIP3      2668            0.0000000000
     26719      2828  TIP3      H1             34.7180687605       23.2590450250       38.5495399548  TIP3      2668            0.0000000000
     26720      2828  TIP3      H2             34.6564596792       24.5298226485       39.4003173566  TIP3      2668            0.0000000000
     26721      2829  TIP3      OH2            24.1928860125       25.4630217497       37.6612049982  TIP3      2669            0.0000000000
     26722      2829  TIP3      H1             24.7695863500       24.7955520242       37.2507785553  TIP3      2669            0.0000000000
     26723      2829  TIP3      H2             24.1019012889       25.0204017263       38.5388963293  TIP3      2669            0.0000000000
     26724      2830  TIP3      OH2            28.4891170397       20.9536412607       36.4268004348  TIP3      2670            0.0000000000
     26725      2830  TIP3      H1             29.0498256530       20.1799890249       36.2425126724  TIP3      2670            0.0000000000
     26726      2830  TIP3      H2             28.6175863506       21.4632548851       35.5968214114  TIP3      2670            0.0000000000
     26727      2831  TIP3      OH2            29.2629070520       22.3836658569       38.5281419674  TIP3      2671            0.0000000000
     26728      2831  TIP3      H1             29.0483478144       21.6952854129       37.8633119811  TIP3      2671            0.0000000000
     26729      2831  TIP3      H2             28.8747166584       23.1288619085       38.0396337539  TIP3      2671            0.0000000000
     26730      2832  TIP3      OH2            23.0585922747       34.1104812568       21.1996642475  TIP3      2672            0.0000000000
     26731      2832  TIP3      H1             23.6758656002       34.3284344296       20.4904947390  TIP3      2672            0.0000000000
     26732      2832  TIP3      H2             22.2969120672       33.7516575088       20.6882460031  TIP3      2672            0.0000000000
     26733      2833  TIP3      OH2            22.2012724137       31.6387179356       31.0261285781  TIP3      2673            0.0000000000
     26734      2833  TIP3      H1             22.2216947101       31.3251077045       30.0930770820  TIP3      2673            0.0000000000
     26735      2833  TIP3      H2             23.1560463970       31.5886669294       31.2629912000  TIP3      2673            0.0000000000
     26736      2834  TIP3      OH2            21.8966032378       26.5589078707       36.7621298470  TIP3      2674            0.0000000000
     26737      2834  TIP3      H1             22.7752309376       26.1442928829       36.9389670790  TIP3      2674            0.0000000000
     26738      2834  TIP3      H2             21.3316278449       25.7632917786       36.8974741343  TIP3      2674            0.0000000000
     26739      2835  TIP3      OH2            23.3406401471       25.1666327407       29.3636386426  TIP3      2675            0.0000000000
     26740      2835  TIP3      H1             23.6743113609       24.2665803459       29.5825099176  TIP3      2675            0.0000000000
     26741      2835  TIP3      H2             24.1202475864       25.7205086640       29.5449885267  TIP3      2675            0.0000000000
     26742      2836  TIP3      OH2            21.4154225540       27.5691426829       30.7337064164  TIP3      2676            0.0000000000
     26743      2836  TIP3      H1             21.4117708353       27.6939368497       29.7638649813  TIP3      2676            0.0000000000
     26744      2836  TIP3      H2             22.2060743387       28.0414523843       31.0077709712  TIP3      2676            0.0000000000
     26745      2837  TIP3      OH2            21.7051046874       24.1329380075       24.5659851437  TIP3      2677            0.0000000000
     26746      2837  TIP3      H1             20.8064834282       24.4765500784       24.6979527140  TIP3      2677            0.0000000000
     26747      2837  TIP3      H2             22.1720662991       24.8791756347       24.1354862970  TIP3      2677            0.0000000000
     26748      2838  TIP3      OH2            22.3325387201       23.0565331519       34.1428914117  TIP3      2678            0.0000000000
     26749      2838  TIP3      H1             22.3066428770       22.0812238143       33.9937243488  TIP3      2678            0.0000000000
     26750      2838  TIP3      H2             21.8849682481       23.3860243478       33.3648203202  TIP3      2678            0.0000000000
     26751      2839  TIP3      OH2            31.6963458926       23.7138492061       29.2197156993  TIP3      2679            0.0000000000
     26752      2839  TIP3      H1             31.1490570275       22.9860988119       29.5754317582  TIP3      2679            0.0000000000
     26753      2839  TIP3      H2             32.0817869670       23.2762417503       28.4420353067  TIP3      2679            0.0000000000
     26754      2840  TIP3      OH2            23.8889613462       21.9683249362       26.7639957155  TIP3      2680            0.0000000000
     26755      2840  TIP3      H1             23.0200803369       21.6536189527       26.4246838223  TIP3      2680            0.0000000000
     26756      2840  TIP3      H2             24.5153082006       21.3578996836       26.3237764316  TIP3      2680            0.0000000000
     26757      2841  TIP3      OH2            23.3008532964       21.8187800803       22.7546789583  TIP3      2681            0.0000000000
     26758      2841  TIP3      H1             23.8711443898       22.4922437308       22.3120810303  TIP3      2681            0.0000000000
     26759      2841  TIP3      H2             22.8057485667       22.3828444865       23.3758474868  TIP3      2681            0.0000000000
     26760      2842  TIP3      OH2            29.5249577244       20.8797714306       26.8089477324  TIP3      2682            0.0000000000
     26761      2842  TIP3      H1             29.4503632268       21.8332326294       26.6942345449  TIP3      2682            0.0000000000
     26762      2842  TIP3      H2             28.8218767425       20.7596178353       27.4750406366  TIP3      2682            0.0000000000
     26763      2843  TIP3      OH2            34.1398494290       22.0692410586       29.0919366973  TIP3      2683            0.0000000000
     26764      2843  TIP3      H1             34.1196954599       22.5075348137       28.2206165727  TIP3      2683            0.0000000000
     26765      2843  TIP3      H2             34.2224509343       21.1398754814       28.8258231254  TIP3      2683            0.0000000000
     26766      2844  TIP3      OH2            25.1667227614       23.4892276133       21.7077007036  TIP3      2684            0.0000000000
     26767      2844  TIP3      H1             25.0330871614       24.1877115664       21.0538017631  TIP3      2684            0.0000000000
     26768      2844  TIP3      H2             25.9295963856       23.8339283107       22.2304651645  TIP3      2684            0.0000000000
     26769      2845  TIP3      OH2            29.9195956857       24.1432769327       23.3983032541  TIP3      2685            0.0000000000
     26770      2845  TIP3      H1             29.5350366424       24.2111289386       24.2984990069  TIP3      2685            0.0000000000
     26771      2845  TIP3      H2             30.3404699375       25.0191026315       23.2996674998  TIP3      2685            0.0000000000
     26772      2846  TIP3      OH2            24.1542942629       22.8065447618       36.3153867812  TIP3      2686            0.0000000000
     26773      2846  TIP3      H1             23.3209047016       22.3037074388       36.2802813411  TIP3      2686            0.0000000000
     26774      2846  TIP3      H2             24.6362764311       22.3564964636       37.0350465047  TIP3      2686            0.0000000000
     26775      2847  TIP3      OH2            25.8578850936       21.8425527649       38.1716075036  TIP3      2687            0.0000000000
     26776      2847  TIP3      H1             26.3899196042       22.5326437620       37.6996428436  TIP3      2687            0.0000000000
     26777      2847  TIP3      H2             26.5728403981       21.1992477378       38.2837314005  TIP3      2687            0.0000000000
     26778      2848  TIP3      OH2            34.3120827876       21.5738913377       38.4575471744  TIP3      2688            0.0000000000
     26779      2848  TIP3      H1             34.4153351688       21.0735566177       39.2891543740  TIP3      2688            0.0000000000
     26780      2848  TIP3      H2             35.1403131732       21.3154439607       38.0121480943  TIP3      2688            0.0000000000
     26781      2849  TIP3      OH2           -24.1879187949      -28.0019937456       39.8418305303  TIP3      2689            0.0000000000
     26782      2849  TIP3      H1            -23.6767989857      -27.5131111766       40.5305519034  TIP3      2689            0.0000000000
     26783      2849  TIP3      H2            -23.4773855737      -28.5970995046       39.5351441137  TIP3      2689            0.0000000000
     26784      2850  TIP3      OH2           -22.3844322876      -26.4637299042       41.0555787473  TIP3      2690            0.0000000000
     26785      2850  TIP3      H1            -22.9113295204      -25.7960244347       41.5134626278  TIP3      2690            0.0000000000
     26786      2850  TIP3      H2            -21.7940717373      -25.9132442657       40.4881600877  TIP3      2690            0.0000000000
     26787      2851  TIP3      OH2           -18.2042035496      -34.5232179846       42.3111876262  TIP3      2691            0.0000000000
     26788      2851  TIP3      H1            -19.0729971873      -34.9188806911       42.1485925060  TIP3      2691            0.0000000000
     26789      2851  TIP3      H2            -18.2330128000      -33.7006443959       41.7892881729  TIP3      2691            0.0000000000
     26790      2852  TIP3      OH2           -17.2561579868      -20.2567218265       40.0234944258  TIP3      2692            0.0000000000
     26791      2852  TIP3      H1            -16.8592362542      -19.3813320663       39.8757033318  TIP3      2692            0.0000000000
     26792      2852  TIP3      H2            -16.4729475662      -20.7651671506       40.3333439502  TIP3      2692            0.0000000000
     26793      2853  TIP3      OH2           -22.0598566636      -17.9615751201       40.8234640194  TIP3      2693            0.0000000000
     26794      2853  TIP3      H1            -21.5645346350      -18.3850965251       40.0891943365  TIP3      2693            0.0000000000
     26795      2853  TIP3      H2            -21.6952205673      -18.4258115399       41.6045115066  TIP3      2693            0.0000000000
     26796      2854  TIP3      OH2           -20.5199947345      -24.9675383286       39.9110333159  TIP3      2694            0.0000000000
     26797      2854  TIP3      H1            -20.8957112224      -24.9310625115       38.9980917263  TIP3      2694            0.0000000000
     26798      2854  TIP3      H2            -19.5661097159      -25.0915868748       39.7034473321  TIP3      2694            0.0000000000
     26799      2855  TIP3      OH2           -25.3336833465      -31.8853925780       41.0176317190  TIP3      2695            0.0000000000
     26800      2855  TIP3      H1            -25.4670682849      -30.9603428273       40.7601169310  TIP3      2695            0.0000000000
     26801      2855  TIP3      H2            -25.5826154088      -32.3235423599       40.1898727038  TIP3      2695            0.0000000000
     26802      2856  TIP3      OH2           -28.6197459228      -30.9755357829       39.4888502168  TIP3      2696            0.0000000000
     26803      2856  TIP3      H1            -29.2531958265      -31.4916218184       40.0208924799  TIP3      2696            0.0000000000
     26804      2856  TIP3      H2            -29.1130236976      -30.1421295802       39.3844398674  TIP3      2696            0.0000000000
     26805      2857  TIP3      OH2           -33.9293291402      -30.9790519469       41.8898902783  TIP3      2697            0.0000000000
     26806      2857  TIP3      H1            -33.1589883203      -31.1009429232       41.3268785456  TIP3      2697            0.0000000000
     26807      2857  TIP3      H2            -34.6191266433      -30.7783489928       41.2264503720  TIP3      2697            0.0000000000
     26808      2858  TIP3      OH2           -30.1437504053      -28.3324576666       40.7924981462  TIP3      2698            0.0000000000
     26809      2858  TIP3      H1            -30.7286053549      -28.7654147529       40.1428466984  TIP3      2698            0.0000000000
     26810      2858  TIP3      H2            -29.4085630562      -28.0476829672       40.2201326165  TIP3      2698            0.0000000000
     26811      2859  TIP3      OH2           -22.5049585545      -31.2158584170       40.5915965276  TIP3      2699            0.0000000000
     26812      2859  TIP3      H1            -23.3327666295      -31.3540929526       41.0872943551  TIP3      2699            0.0000000000
     26813      2859  TIP3      H2            -22.1068228158      -30.4858775577       41.1375246945  TIP3      2699            0.0000000000
     26814      2860  TIP3      OH2           -21.7132442549      -29.0593520099       41.8765650031  TIP3      2700            0.0000000000
     26815      2860  TIP3      H1            -21.1497917845      -29.1867021342       42.6600952845  TIP3      2700            0.0000000000
     26816      2860  TIP3      H2            -21.4380851146      -28.1937736923       41.5364979718  TIP3      2700            0.0000000000
     26817      2861  TIP3      OH2           -24.1251995493      -22.4091786347       42.0077857110  TIP3      2701            0.0000000000
     26818      2861  TIP3      H1            -24.6155733092      -21.6645520172       41.6162541651  TIP3      2701            0.0000000000
     26819      2861  TIP3      H2            -24.7045042447      -23.1607224454       41.7519935434  TIP3      2701            0.0000000000
     26820      2862  TIP3      OH2           -16.8776986535      -28.7007607587       41.8406973351  TIP3      2702            0.0000000000
     26821      2862  TIP3      H1            -17.4820842328      -29.0314716749       41.1431053870  TIP3      2702            0.0000000000
     26822      2862  TIP3      H2            -16.8146353509      -27.7592224895       41.5777884109  TIP3      2702            0.0000000000
     26823      2863  TIP3      OH2           -33.1032524380      -26.0120312061       39.8543632025  TIP3      2703            0.0000000000
     26824      2863  TIP3      H1            -32.6465014781      -25.2744668716       40.3191319279  TIP3      2703            0.0000000000
     26825      2863  TIP3      H2            -33.9476972435      -26.0640415103       40.3370766001  TIP3      2703            0.0000000000
     26826      2864  TIP3      OH2           -20.6855675663      -21.6071230648       40.5030988521  TIP3      2704            0.0000000000
     26827      2864  TIP3      H1            -20.8155810864      -22.3456434244       41.1212634036  TIP3      2704            0.0000000000
     26828      2864  TIP3      H2            -21.6116475249      -21.5234077608       40.1995621256  TIP3      2704            0.0000000000
     26829      2865  TIP3      OH2           -16.6106431307      -17.6592481851       40.5523041662  TIP3      2705            0.0000000000
     26830      2865  TIP3      H1            -15.7680966616      -17.2274410799       40.7541010263  TIP3      2705            0.0000000000
     26831      2865  TIP3      H2            -16.9530259908      -17.0671290053       39.8591643012  TIP3      2705            0.0000000000
     26832      2866  TIP3      OH2           -26.8257341234      -20.6964530643       38.3443215172  TIP3      2706            0.0000000000
     26833      2866  TIP3      H1            -27.1060906791      -21.2193717972       37.5778938591  TIP3      2706            0.0000000000
     26834      2866  TIP3      H2            -27.1948308482      -21.2763955639       39.0367009085  TIP3      2706            0.0000000000
     26835      2867  TIP3      OH2           -28.0964549157      -21.5289400762       41.1167025306  TIP3      2707            0.0000000000
     26836      2867  TIP3      H1            -27.3504983249      -22.1555542795       41.0426791977  TIP3      2707            0.0000000000
     26837      2867  TIP3      H2            -27.7923161400      -20.8931769170       41.7977982534  TIP3      2707            0.0000000000
     26838      2868  TIP3      OH2           -32.0246476900      -24.0731666119       41.2410984860  TIP3      2708            0.0000000000
     26839      2868  TIP3      H1            -32.8264905852      -23.5560516889       41.4397516683  TIP3      2708            0.0000000000
     26840      2868  TIP3      H2            -31.4030496854      -23.3860277417       40.8944249405  TIP3      2708            0.0000000000
     26841      2869  TIP3      OH2           -25.5968549560      -20.0404091547       41.2170194827  TIP3      2709            0.0000000000
     26842      2869  TIP3      H1            -26.5039180880      -19.7355025217       41.4339952859  TIP3      2709            0.0000000000
     26843      2869  TIP3      H2            -25.3882788669      -19.4684557631       40.4511666355  TIP3      2709            0.0000000000
     26844      2870  TIP3      OH2           -27.9560345366      -19.0522255880       42.3684608033  TIP3      2710            0.0000000000
     26845      2870  TIP3      H1            -28.3480798875      -18.7836981338       41.5216578071  TIP3      2710            0.0000000000
     26846      2870  TIP3      H2            -28.1414956477      -18.2610199115       42.8850330104  TIP3      2710            0.0000000000
     26847      2871  TIP3      OH2           -29.6586078524      -32.4816931489       41.6850823926  TIP3      2711            0.0000000000
     26848      2871  TIP3      H1            -29.8639963963      -31.6418221607       42.1234560310  TIP3      2711            0.0000000000
     26849      2871  TIP3      H2            -28.7104505153      -32.3670243895       41.5189086637  TIP3      2711            0.0000000000
     26850      2872  TIP3      OH2           -30.8518571089      -21.8783746516       40.3651300213  TIP3      2712            0.0000000000
     26851      2872  TIP3      H1            -30.1435811562      -21.6114143595       40.9789728408  TIP3      2712            0.0000000000
     26852      2872  TIP3      H2            -30.2936758259      -22.2941084879       39.6593628981  TIP3      2712            0.0000000000
     26853      2873  TIP3      OH2           -33.0435902762      -28.8162787526       40.3583658232  TIP3      2713            0.0000000000
     26854      2873  TIP3      H1            -32.7830608661      -27.9690681044       39.9465764154  TIP3      2713            0.0000000000
     26855      2873  TIP3      H2            -33.3891450777      -29.3401579319       39.6182653449  TIP3      2713            0.0000000000
     26856      2874  TIP3      OH2           -24.8616187882      -18.6437534197       38.9713574934  TIP3      2714            0.0000000000
     26857      2874  TIP3      H1            -25.4717524887      -19.3880194148       38.7484172536  TIP3      2714            0.0000000000
     26858      2874  TIP3      H2            -24.0821500222      -19.0065929546       38.4960503667  TIP3      2714            0.0000000000
     26859      2875  TIP3      OH2           -20.2141694378      -19.1178544199       39.1960236938  TIP3      2715            0.0000000000
     26860      2875  TIP3      H1            -20.0932268578      -19.9766808270       39.6353083353  TIP3      2715            0.0000000000
     26861      2875  TIP3      H2            -19.4803943732      -19.1478387930       38.5305167770  TIP3      2715            0.0000000000
     26862      2876  TIP3      OH2           -29.5991474727      -23.5914897186       38.7516372462  TIP3      2716            0.0000000000
     26863      2876  TIP3      H1            -29.4472366710      -24.3407160709       39.3597899686  TIP3      2716            0.0000000000
     26864      2876  TIP3      H2            -28.8767319581      -23.7557991009       38.0884273430  TIP3      2716            0.0000000000
     26865      2877  TIP3      OH2           -23.6367779871      -22.1750989550       38.8628049457  TIP3      2717            0.0000000000
     26866      2877  TIP3      H1            -24.2946638872      -22.6829837911       39.3693452601  TIP3      2717            0.0000000000
     26867      2877  TIP3      H2            -23.6371723827      -22.7408322077       38.0626869521  TIP3      2717            0.0000000000
     26868      2878  TIP3      OH2           -28.9146813338      -25.0448890842       40.9131264509  TIP3      2718            0.0000000000
     26869      2878  TIP3      H1            -28.8500383111      -25.9373029966       41.2674982904  TIP3      2718            0.0000000000
     26870      2878  TIP3      H2            -27.9540923835      -24.8362131667       40.7454950033  TIP3      2718            0.0000000000
     26871      2879  TIP3      OH2           -27.2684101755      -27.3587275205       39.6697495722  TIP3      2719            0.0000000000
     26872      2879  TIP3      H1            -27.2069615230      -27.1664459738       38.7057282453  TIP3      2719            0.0000000000
     26873      2879  TIP3      H2            -26.3342245116      -27.2666712632       39.9171607216  TIP3      2719            0.0000000000
     26874      2880  TIP3      OH2           -17.9333382390      -24.6697759344       39.0902126679  TIP3      2720            0.0000000000
     26875      2880  TIP3      H1            -18.0826507782      -24.8972518984       38.1510290801  TIP3      2720            0.0000000000
     26876      2880  TIP3      H2            -17.9311814050      -23.6795929587       39.0145706956  TIP3      2720            0.0000000000
     26877      2881  TIP3      OH2           -27.0645039581      -16.6526787189       41.1194325091  TIP3      2721            0.0000000000
     26878      2881  TIP3      H1            -26.1007396543      -16.6005660143       41.0138224619  TIP3      2721            0.0000000000
     26879      2881  TIP3      H2            -27.3549616007      -16.3116386806       40.2530827221  TIP3      2721            0.0000000000
     26880      2882  TIP3      OH2           -34.0189998411      -21.9712613517       40.3806177224  TIP3      2722            0.0000000000
     26881      2882  TIP3      H1            -33.0932773062      -21.9252179046       40.0851405984  TIP3      2722            0.0000000000
     26882      2882  TIP3      H2            -34.4562122834      -22.0844373665       39.5252841201  TIP3      2722            0.0000000000
     26883      2883  TIP3      OH2           -16.6474743099      -26.0604154863       40.9735241069  TIP3      2723            0.0000000000
     26884      2883  TIP3      H1            -16.9885821762      -25.5448671189       40.2057752739  TIP3      2723            0.0000000000
     26885      2883  TIP3      H2            -15.8615710221      -25.5716597863       41.2515441260  TIP3      2723            0.0000000000
     26886      2884  TIP3      OH2           -18.4247439347      -28.9581642361       39.5520426963  TIP3      2724            0.0000000000
     26887      2884  TIP3      H1            -18.0525338572      -28.5419691702       38.7583893805  TIP3      2724            0.0000000000
     26888      2884  TIP3      H2            -18.8704983880      -29.7572626777       39.1939197348  TIP3      2724            0.0000000000
     26889      2885  TIP3      OH2           -19.3014663438      -31.4861022243       39.2359495140  TIP3      2725            0.0000000000
     26890      2885  TIP3      H1            -18.5892474768      -31.8526777262       39.8158253586  TIP3      2725            0.0000000000
     26891      2885  TIP3      H2            -20.0597041961      -31.5093450433       39.8362636326  TIP3      2725            0.0000000000
     26892      2886  TIP3      OH2           -17.0618490299      -32.5548849117       40.4096429971  TIP3      2726            0.0000000000
     26893      2886  TIP3      H1            -16.4866443863      -33.1219234678       39.8374082143  TIP3      2726            0.0000000000
     26894      2886  TIP3      H2            -16.3968952272      -32.1081514817       40.9722615721  TIP3      2726            0.0000000000
     26895      2887  TIP3      OH2           -32.9672696194      -34.1148169726       42.4343319994  TIP3      2727            0.0000000000
     26896      2887  TIP3      H1            -33.2788733505      -34.4542344995       41.5734511872  TIP3      2727            0.0000000000
     26897      2887  TIP3      H2            -33.8181244964      -33.7277523374       42.7258952831  TIP3      2727            0.0000000000
     26898      2888  TIP3      OH2           -31.7873592231      -32.4250014522       39.9318048531  TIP3      2728            0.0000000000
     26899      2888  TIP3      H1            -31.5572524752      -33.1069374396       39.2603048106  TIP3      2728            0.0000000000
     26900      2888  TIP3      H2            -31.7910660037      -32.9845964123       40.7352293013  TIP3      2728            0.0000000000
     26901      2889  TIP3      OH2           -24.3527052273      -16.5289856479       40.9979253307  TIP3      2729            0.0000000000
     26902      2889  TIP3      H1            -23.7070981516      -17.2607822516       41.1222721775  TIP3      2729            0.0000000000
     26903      2889  TIP3      H2            -24.5365546538      -16.6602801985       40.0514236943  TIP3      2729            0.0000000000
     26904      2890  TIP3      OH2           -32.2260284067      -18.2872509986       39.3655849496  TIP3      2730            0.0000000000
     26905      2890  TIP3      H1            -32.2549526780      -17.8021727283       40.2156509681  TIP3      2730            0.0000000000
     26906      2890  TIP3      H2            -31.2768217936      -18.3249672271       39.1708660398  TIP3      2730            0.0000000000
     26907      2891  TIP3      OH2            -5.9210501686      -26.7571911831       39.9620506226  TIP3      2731            0.0000000000
     26908      2891  TIP3      H1             -5.1136771298      -26.9931301901       40.4498051818  TIP3      2731            0.0000000000
     26909      2891  TIP3      H2             -6.2602842951      -27.6437654212       39.7168088050  TIP3      2731            0.0000000000
     26910      2892  TIP3      OH2            -3.2216582975      -26.2331237926       41.2968670721  TIP3      2732            0.0000000000
     26911      2892  TIP3      H1             -3.9228739540      -25.6637324279       41.6543052979  TIP3      2732            0.0000000000
     26912      2892  TIP3      H2             -2.7807059663      -25.6725967991       40.6160428249  TIP3      2732            0.0000000000
     26913      2893  TIP3      OH2             0.8282322266      -34.9365333295       41.3812837653  TIP3      2733            0.0000000000
     26914      2893  TIP3      H1              0.1466275746      -35.0306860338       42.0630272078  TIP3      2733            0.0000000000
     26915      2893  TIP3      H2              0.9442429315      -33.9576886077       41.4231601705  TIP3      2733            0.0000000000
     26916      2894  TIP3      OH2             2.0784241287      -20.0923002654       39.5077973516  TIP3      2734            0.0000000000
     26917      2894  TIP3      H1              1.8052485291      -19.2628862025       39.9513442198  TIP3      2734            0.0000000000
     26918      2894  TIP3      H2              2.4843920757      -20.5429017923       40.2793920467  TIP3      2734            0.0000000000
     26919      2895  TIP3      OH2            -3.1192959416      -18.0600329709       40.8295987062  TIP3      2735            0.0000000000
     26920      2895  TIP3      H1             -2.5245584294      -18.6905667977       40.3638326444  TIP3      2735            0.0000000000
     26921      2895  TIP3      H2             -2.7383798485      -18.0163860899       41.7236503082  TIP3      2735            0.0000000000
     26922      2896  TIP3      OH2            -1.9662087010      -24.5412819722       39.5820644896  TIP3      2736            0.0000000000
     26923      2896  TIP3      H1             -2.0785450196      -24.8071670411       38.6441748950  TIP3      2736            0.0000000000
     26924      2896  TIP3      H2             -1.0300895880      -24.7888205018       39.6707326929  TIP3      2736            0.0000000000
     26925      2897  TIP3      OH2            -6.0534793772      -31.5827062298       39.8870074426  TIP3      2737            0.0000000000
     26926      2897  TIP3      H1             -6.6448638624      -30.8188305233       39.8239643161  TIP3      2737            0.0000000000
     26927      2897  TIP3      H2             -6.6515309359      -32.3366807542       39.8465469961  TIP3      2737            0.0000000000
     26928      2898  TIP3      OH2            -9.8540814001      -31.3787927481       39.2488165566  TIP3      2738            0.0000000000
     26929      2898  TIP3      H1            -10.7923714435      -31.3573369680       38.9840404663  TIP3      2738            0.0000000000
     26930      2898  TIP3      H2             -9.4788449719      -30.9458933535       38.4606525417  TIP3      2738            0.0000000000
     26931      2899  TIP3      OH2           -15.2375416290      -31.0500323749       41.8113305735  TIP3      2739            0.0000000000
     26932      2899  TIP3      H1            -14.6255770517      -30.9911597318       41.0651336214  TIP3      2739            0.0000000000
     26933      2899  TIP3      H2            -15.5125627615      -30.1197172935       41.9310685381  TIP3      2739            0.0000000000
     26934      2900  TIP3      OH2           -10.0149952680      -28.5584610634       40.5571454887  TIP3      2740            0.0000000000
     26935      2900  TIP3      H1            -10.8789232133      -28.6765299916       40.1349613451  TIP3      2740            0.0000000000
     26936      2900  TIP3      H2             -9.4938385233      -28.7900407407       39.7680504418  TIP3      2740            0.0000000000
     26937      2901  TIP3      OH2            -3.3036712850      -30.9587510271       40.7548084712  TIP3      2741            0.0000000000
     26938      2901  TIP3      H1             -4.2631148895      -31.1022142968       40.8963021943  TIP3      2741            0.0000000000
     26939      2901  TIP3      H2             -3.1069924660      -30.1691554156       41.3240022390  TIP3      2741            0.0000000000
     26940      2902  TIP3      OH2            -2.7960726634      -28.6800767952       42.1810512200  TIP3      2742            0.0000000000
     26941      2902  TIP3      H1             -2.1396177946      -28.6434774578       42.9033777001  TIP3      2742            0.0000000000
     26942      2902  TIP3      H2             -2.6767279882      -27.7948353787       41.7604102421  TIP3      2742            0.0000000000
     26943      2903  TIP3      OH2            -5.4496097225      -22.7665485940       41.9949374877  TIP3      2743            0.0000000000
     26944      2903  TIP3      H1             -6.4079086085      -22.7853779379       41.8544761023  TIP3      2743            0.0000000000
     26945      2903  TIP3      H2             -5.4123268562      -23.3576514979       42.7930881766  TIP3      2743            0.0000000000
     26946      2904  TIP3      OH2             2.1073389297      -28.6082608572       41.8438762262  TIP3      2744            0.0000000000
     26947      2904  TIP3      H1              1.7910156285      -29.2186956550       41.1489375603  TIP3      2744            0.0000000000
     26948      2904  TIP3      H2              2.1841695282      -27.7744352033       41.3313044553  TIP3      2744            0.0000000000
     26949      2905  TIP3      OH2           -13.9213534530      -25.4765232664       39.9689693310  TIP3      2745            0.0000000000
     26950      2905  TIP3      H1            -13.5044304187      -25.9661756205       40.7162442056  TIP3      2745            0.0000000000
     26951      2905  TIP3      H2            -14.7214643428      -26.0020645452       39.8472118288  TIP3      2745            0.0000000000
     26952      2906  TIP3      OH2            -2.3773206277      -21.6448401076       40.1715321424  TIP3      2746            0.0000000000
     26953      2906  TIP3      H1             -1.8021291877      -21.9197387633       40.9332084794  TIP3      2746            0.0000000000
     26954      2906  TIP3      H2             -2.4958798286      -22.5246202912       39.7589672889  TIP3      2746            0.0000000000
     26955      2907  TIP3      OH2             2.0643137819      -17.6478281295       40.7086857736  TIP3      2747            0.0000000000
     26956      2907  TIP3      H1              2.8770892326      -17.1166472778       40.7052681542  TIP3      2747            0.0000000000
     26957      2907  TIP3      H2              1.6029277491      -17.2631547104       41.4817506638  TIP3      2747            0.0000000000
     26958      2908  TIP3      OH2            -8.0762184659      -20.8136730510       38.4702004767  TIP3      2748            0.0000000000
     26959      2908  TIP3      H1             -8.7192552251      -21.2828895081       37.8941491800  TIP3      2748            0.0000000000
     26960      2908  TIP3      H2             -8.4834606403      -21.0551045092       39.3386272344  TIP3      2748            0.0000000000
     26961      2909  TIP3      OH2            -9.0991286322      -21.1391381173       41.0285261385  TIP3      2749            0.0000000000
     26962      2909  TIP3      H1             -9.2485051255      -21.8595802852       41.6915801550  TIP3      2749            0.0000000000
     26963      2909  TIP3      H2             -9.4432293453      -20.3815752070       41.5372094965  TIP3      2749            0.0000000000
     26964      2910  TIP3      OH2           -13.2113099770      -23.6919771235       42.5082582521  TIP3      2750            0.0000000000
     26965      2910  TIP3      H1            -13.5558242147      -24.4931648733       42.0843588888  TIP3      2750            0.0000000000
     26966      2910  TIP3      H2            -12.9712300145      -23.1540073476       41.7129397289  TIP3      2750            0.0000000000
     26967      2911  TIP3      OH2            -6.6633817422      -20.1985691005       41.1327683987  TIP3      2751            0.0000000000
     26968      2911  TIP3      H1             -7.5743751130      -20.5496722524       40.9828588075  TIP3      2751            0.0000000000
     26969      2911  TIP3      H2             -6.5246227093      -19.6307013104       40.3570732279  TIP3      2751            0.0000000000
     26970      2912  TIP3      OH2            -9.0822646879      -18.4301641648       42.1844730989  TIP3      2752            0.0000000000
     26971      2912  TIP3      H1             -8.9875342578      -18.1482983335       41.2535992797  TIP3      2752            0.0000000000
     26972      2912  TIP3      H2             -8.8988188416      -17.5801715109       42.6280440707  TIP3      2752            0.0000000000
     26973      2913  TIP3      OH2           -11.3039923710      -32.0030671484       41.5608204793  TIP3      2753            0.0000000000
     26974      2913  TIP3      H1            -11.2738347255      -31.1335146823       41.9669355179  TIP3      2753            0.0000000000
     26975      2913  TIP3      H2            -10.5025456668      -31.9774726030       40.9889221309  TIP3      2753            0.0000000000
     26976      2914  TIP3      OH2           -12.6106209740      -22.4344171496       40.2425501291  TIP3      2754            0.0000000000
     26977      2914  TIP3      H1            -12.4222670407      -21.4601240646       40.2385022113  TIP3      2754            0.0000000000
     26978      2914  TIP3      H2            -11.7352646253      -22.7297568285       39.8876719228  TIP3      2754            0.0000000000
     26979      2915  TIP3      OH2           -14.1793986882      -28.7615374572       39.4639887249  TIP3      2755            0.0000000000
     26980      2915  TIP3      H1            -13.7258765969      -28.3142590541       40.2156026567  TIP3      2755            0.0000000000
     26981      2915  TIP3      H2            -15.0121117486      -29.0139334037       39.8742499817  TIP3      2755            0.0000000000
     26982      2916  TIP3      OH2            -6.1357623590      -18.7171844544       38.8236609882  TIP3      2756            0.0000000000
     26983      2916  TIP3      H1             -6.8257978661      -19.3956839883       38.6677298685  TIP3      2756            0.0000000000
     26984      2916  TIP3      H2             -5.3991841792      -19.0805586093       38.2843975636  TIP3      2756            0.0000000000
     26985      2917  TIP3      OH2            -1.4915144007      -19.4041807340       38.9470525961  TIP3      2757            0.0000000000
     26986      2917  TIP3      H1             -1.5635755062      -20.2779789195       39.3931529244  TIP3      2757            0.0000000000
     26987      2917  TIP3      H2             -0.7880087650      -19.5994436901       38.2812145588  TIP3      2757            0.0000000000
     26988      2918  TIP3      OH2           -10.4893771051      -23.3230481084       38.8943997344  TIP3      2758            0.0000000000
     26989      2918  TIP3      H1            -10.3896231412      -24.0569393466       39.5111604135  TIP3      2758            0.0000000000
     26990      2918  TIP3      H2             -9.8850454632      -23.6050279874       38.1849209085  TIP3      2758            0.0000000000
     26991      2919  TIP3      OH2            -5.0184855018      -22.3704838504       39.3328508119  TIP3      2759            0.0000000000
     26992      2919  TIP3      H1             -5.0687370702      -22.4361718870       40.3135353173  TIP3      2759            0.0000000000
     26993      2919  TIP3      H2             -4.7063640359      -23.2803748493       39.1310668343  TIP3      2759            0.0000000000
     26994      2920  TIP3      OH2           -10.0481814954      -25.2684374788       41.4466479548  TIP3      2760            0.0000000000
     26995      2920  TIP3      H1             -9.9338346491      -26.0392893356       42.0219040435  TIP3      2760            0.0000000000
     26996      2920  TIP3      H2             -9.5894945883      -25.6308345244       40.6522460586  TIP3      2760            0.0000000000
     26997      2921  TIP3      OH2            -8.4172156778      -26.0969598081       39.5443087095  TIP3      2761            0.0000000000
     26998      2921  TIP3      H1             -8.4608763753      -27.0382231037       39.2645840943  TIP3      2761            0.0000000000
     26999      2921  TIP3      H2             -7.4534820869      -26.0492192965       39.7651650773  TIP3      2761            0.0000000000
     27000      2922  TIP3      OH2             0.9399523852      -24.8883380553       39.2198816785  TIP3      2762            0.0000000000
     27001      2922  TIP3      H1              0.6884210946      -25.1822071731       38.3208787456  TIP3      2762            0.0000000000
     27002      2922  TIP3      H2              0.9295123402      -23.9172517136       39.0799315259  TIP3      2762            0.0000000000
     27003      2923  TIP3      OH2            -8.3924953143      -16.5900159308       40.3438886878  TIP3      2763            0.0000000000
     27004      2923  TIP3      H1             -7.4283469528      -16.4519297421       40.4002479990  TIP3      2763            0.0000000000
     27005      2923  TIP3      H2             -8.4656960178      -17.2048340896       39.5803463893  TIP3      2763            0.0000000000
     27006      2924  TIP3      OH2           -15.2457876559      -22.2534090066       40.4572123193  TIP3      2764            0.0000000000
     27007      2924  TIP3      H1            -14.2655272553      -22.3560643999       40.4408531160  TIP3      2764            0.0000000000
     27008      2924  TIP3      H2            -15.4228660373      -22.6132988622       39.5668998068  TIP3      2764            0.0000000000
     27009      2925  TIP3      OH2             2.7443105089      -26.2411732023       40.7619533782  TIP3      2765            0.0000000000
     27010      2925  TIP3      H1              2.0678001168      -26.0179800866       40.0796260477  TIP3      2765            0.0000000000
     27011      2925  TIP3      H2              2.4237087513      -25.7465846269       41.5503858104  TIP3      2765            0.0000000000
     27012      2926  TIP3      OH2            -0.1481866703      -28.3508925708       39.7006227794  TIP3      2766            0.0000000000
     27013      2926  TIP3      H1              0.6996848772      -28.1867470720       39.2339333878  TIP3      2766            0.0000000000
     27014      2926  TIP3      H2             -0.2482183551      -29.3127165498       39.5451613389  TIP3      2766            0.0000000000
     27015      2927  TIP3      OH2            -0.1335739651      -31.0681236607       39.0464632485  TIP3      2767            0.0000000000
     27016      2927  TIP3      H1              0.1753329867      -31.3181867314       39.9308909347  TIP3      2767            0.0000000000
     27017      2927  TIP3      H2             -1.0347332278      -31.4328891518       39.0396152816  TIP3      2767            0.0000000000
     27018      2928  TIP3      OH2             1.7432514325      -32.4368812792       40.7884205336  TIP3      2768            0.0000000000
     27019      2928  TIP3      H1              1.7848353630      -32.6752802576       39.8425843522  TIP3      2768            0.0000000000
     27020      2928  TIP3      H2              2.5081969713      -31.8330900626       40.8988892807  TIP3      2768            0.0000000000
     27021      2929  TIP3      OH2           -14.7769804652      -34.1887847595       42.0211323073  TIP3      2769            0.0000000000
     27022      2929  TIP3      H1            -14.4270977086      -33.6902730352       41.2649285700  TIP3      2769            0.0000000000
     27023      2929  TIP3      H2            -15.5797888377      -34.5824076259       41.6331546102  TIP3      2769            0.0000000000
     27024      2930  TIP3      OH2           -13.2904560565      -32.6455499295       39.6527522095  TIP3      2770            0.0000000000
     27025      2930  TIP3      H1            -12.7917646901      -33.2523657776       39.0555937228  TIP3      2770            0.0000000000
     27026      2930  TIP3      H2            -12.6714346621      -32.6005900017       40.4098745967  TIP3      2770            0.0000000000
     27027      2931  TIP3      OH2            -5.5998269559      -16.7400422795       41.3003782482  TIP3      2771            0.0000000000
     27028      2931  TIP3      H1             -4.6267882032      -16.8057085960       41.2884323323  TIP3      2771            0.0000000000
     27029      2931  TIP3      H2             -5.7483757096      -17.1690980144       40.4442616502  TIP3      2771            0.0000000000
     27030      2932  TIP3      OH2           -12.8728242565      -16.7352144200       39.3744554478  TIP3      2772            0.0000000000
     27031      2932  TIP3      H1            -13.4285386662      -16.7157685988       40.1777355339  TIP3      2772            0.0000000000
     27032      2932  TIP3      H2            -12.5201718847      -17.6439552016       39.5074425077  TIP3      2772            0.0000000000
     27033      2933  TIP3      OH2            12.8307464104      -26.7305018377       40.1324524287  TIP3      2773            0.0000000000
     27034      2933  TIP3      H1             13.5685113236      -26.5416818810       40.7395436603  TIP3      2773            0.0000000000
     27035      2933  TIP3      H2             13.2212310787      -27.5309462316       39.7250183835  TIP3      2773            0.0000000000
     27036      2934  TIP3      OH2            15.5005603882      -26.3575472039       41.7185066328  TIP3      2774            0.0000000000
     27037      2934  TIP3      H1             15.7586465438      -25.6529264558       42.3471683999  TIP3      2774            0.0000000000
     27038      2934  TIP3      H2             16.0757728361      -26.1021774787       40.9562326786  TIP3      2774            0.0000000000
     27039      2935  TIP3      OH2            19.0419775024      -34.8233381655       41.8423089829  TIP3      2775            0.0000000000
     27040      2935  TIP3      H1             18.8105293605      -34.5724711180       42.7585252946  TIP3      2775            0.0000000000
     27041      2935  TIP3      H2             19.9168364365      -34.3833316948       41.7393871083  TIP3      2775            0.0000000000
     27042      2936  TIP3      OH2            19.3994478206      -19.9415001095       41.1534503377  TIP3      2776            0.0000000000
     27043      2936  TIP3      H1             19.6699888802      -18.9967108443       41.1261620848  TIP3      2776            0.0000000000
     27044      2936  TIP3      H2             20.1763196972      -20.3224082331       40.7150507230  TIP3      2776            0.0000000000
     27045      2937  TIP3      OH2            16.2425173806      -17.5003804603       40.7066844519  TIP3      2777            0.0000000000
     27046      2937  TIP3      H1             16.4684270395      -18.4353742429       40.5658464482  TIP3      2777            0.0000000000
     27047      2937  TIP3      H2             16.8636572216      -17.2665354925       41.4201894298  TIP3      2777            0.0000000000
     27048      2938  TIP3      OH2            17.0753435569      -25.2430642805       39.7408087441  TIP3      2778            0.0000000000
     27049      2938  TIP3      H1             16.8054284664      -25.2701087090       38.7955364771  TIP3      2778            0.0000000000
     27050      2938  TIP3      H2             17.7269569919      -24.5290856378       39.6696957966  TIP3      2778            0.0000000000
     27051      2939  TIP3      OH2            11.9559818824      -30.9306154053       39.9994858351  TIP3      2779            0.0000000000
     27052      2939  TIP3      H1             12.3193186351      -30.8531001790       40.8937131614  TIP3      2779            0.0000000000
     27053      2939  TIP3      H2             12.4358497296      -31.6936753649       39.6526909389  TIP3      2779            0.0000000000
     27054      2940  TIP3      OH2             8.7273217053      -31.0066651474       39.1838998621  TIP3      2780            0.0000000000
     27055      2940  TIP3      H1              8.3014620979      -31.5492911198       39.8715600881  TIP3      2780            0.0000000000
     27056      2940  TIP3      H2              8.9517112166      -30.2351275513       39.7404552069  TIP3      2780            0.0000000000
     27057      2941  TIP3      OH2             3.8373222355      -30.9323940517       41.4823517020  TIP3      2781            0.0000000000
     27058      2941  TIP3      H1              4.5958411638      -30.6288223148       40.9510389496  TIP3      2781            0.0000000000
     27059      2941  TIP3      H2              3.5712365582      -30.0860519347       41.8817651195  TIP3      2781            0.0000000000
     27060      2942  TIP3      OH2             8.1557140103      -28.3764445370       40.6562809759  TIP3      2782            0.0000000000
     27061      2942  TIP3      H1              7.3850146818      -28.3752791724       40.0508893412  TIP3      2782            0.0000000000
     27062      2942  TIP3      H2              8.8123951812      -27.8723832954       40.1387599886  TIP3      2782            0.0000000000
     27063      2943  TIP3      OH2            15.1855834020      -31.0223489432       40.4459316149  TIP3      2783            0.0000000000
     27064      2943  TIP3      H1             14.3371191333      -30.6153389549       40.6287625073  TIP3      2783            0.0000000000
     27065      2943  TIP3      H2             15.7606493206      -30.3103767657       40.8271651007  TIP3      2783            0.0000000000
     27066      2944  TIP3      OH2            16.2016523071      -29.0149141146       41.8128358080  TIP3      2784            0.0000000000
     27067      2944  TIP3      H1             16.7461020211      -29.0748892436       42.6176080542  TIP3      2784            0.0000000000
     27068      2944  TIP3      H2             16.0539708839      -28.0545901393       41.7685387344  TIP3      2784            0.0000000000
     27069      2945  TIP3      OH2            13.3553948330      -22.4404874513       41.5379454647  TIP3      2785            0.0000000000
     27070      2945  TIP3      H1             12.8601648946      -21.5902929870       41.5264272590  TIP3      2785            0.0000000000
     27071      2945  TIP3      H2             12.7565149789      -23.0353874840       42.0037571279  TIP3      2785            0.0000000000
     27072      2946  TIP3      OH2            20.7859440806      -29.6559224916       42.1125119586  TIP3      2786            0.0000000000
     27073      2946  TIP3      H1             20.4331324671      -29.4605584852       41.2082233960  TIP3      2786            0.0000000000
     27074      2946  TIP3      H2             21.0450773508      -28.7512304516       42.3951842183  TIP3      2786            0.0000000000
     27075      2947  TIP3      OH2             5.4354752798      -26.1370484284       40.0540751956  TIP3      2787            0.0000000000
     27076      2947  TIP3      H1              5.7726462656      -25.3599373472       40.5412361252  TIP3      2787            0.0000000000
     27077      2947  TIP3      H2              4.5215719859      -26.2083331673       40.4110937768  TIP3      2787            0.0000000000
     27078      2948  TIP3      OH2            16.7727363237      -22.1410604960       40.5309048176  TIP3      2788            0.0000000000
     27079      2948  TIP3      H1             17.2981868099      -22.0101713084       41.3397086812  TIP3      2788            0.0000000000
     27080      2948  TIP3      H2             15.8816544728      -22.2195241111       40.9035154754  TIP3      2788            0.0000000000
     27081      2949  TIP3      OH2            20.6247256636      -17.5786959469       40.6599947874  TIP3      2789            0.0000000000
     27082      2949  TIP3      H1             21.5200112414      -17.3343305847       40.9547700223  TIP3      2789            0.0000000000
     27083      2949  TIP3      H2             20.0596607003      -17.0019630693       41.2252654030  TIP3      2789            0.0000000000
     27084      2950  TIP3      OH2            10.7700337455      -20.8995323059       38.6666505172  TIP3      2790            0.0000000000
     27085      2950  TIP3      H1             10.1021812098      -21.1223674489       38.0045000004  TIP3      2790            0.0000000000
     27086      2950  TIP3      H2             10.3003230181      -21.1791506802       39.4779000795  TIP3      2790            0.0000000000
     27087      2951  TIP3      OH2             9.4848511181      -21.4736051110       41.4755044934  TIP3      2791            0.0000000000
     27088      2951  TIP3      H1              9.9415046708      -21.9908963342       42.1528749548  TIP3      2791            0.0000000000
     27089      2951  TIP3      H2              9.6903474495      -20.5894021080       41.8398871651  TIP3      2791            0.0000000000
     27090      2952  TIP3      OH2             5.8566277587      -23.9204052745       41.5292510415  TIP3      2792            0.0000000000
     27091      2952  TIP3      H1              5.5670413836      -24.6516368597       42.1192299156  TIP3      2792            0.0000000000
     27092      2952  TIP3      H2              6.7540109723      -23.7662398723       41.8963931826  TIP3      2792            0.0000000000
     27093      2953  TIP3      OH2            12.1642455780      -20.0059574870       41.3382452031  TIP3      2793            0.0000000000
     27094      2953  TIP3      H1             11.3084303939      -19.5816243865       41.5743383984  TIP3      2793            0.0000000000
     27095      2953  TIP3      H2             12.7455355519      -19.2093441808       41.3229195592  TIP3      2793            0.0000000000
     27096      2954  TIP3      OH2             9.9599734671      -18.8916632118       42.1506560512  TIP3      2794            0.0000000000
     27097      2954  TIP3      H1             10.0065008379      -18.1618645113       41.4827871712  TIP3      2794            0.0000000000
     27098      2954  TIP3      H2             10.3019964132      -18.4052402012       42.9456932009  TIP3      2794            0.0000000000
     27099      2955  TIP3      OH2             8.1516289862      -32.4045251178       41.4900899396  TIP3      2795            0.0000000000
     27100      2955  TIP3      H1              8.2296171901      -31.6411525544       42.0992027622  TIP3      2795            0.0000000000
     27101      2955  TIP3      H2              9.0903014608      -32.5536946914       41.3091683387  TIP3      2795            0.0000000000
     27102      2956  TIP3      OH2             6.4556900424      -21.3000859591       40.1405326347  TIP3      2796            0.0000000000
     27103      2956  TIP3      H1              7.3569532713      -20.9739014537       40.2736117929  TIP3      2796            0.0000000000
     27104      2956  TIP3      H2              6.6700884670      -22.2543530799       40.0925480572  TIP3      2796            0.0000000000
     27105      2957  TIP3      OH2             5.2480081425      -28.9860447094       40.0133399225  TIP3      2797            0.0000000000
     27106      2957  TIP3      H1              5.3698479978      -28.1266283798       40.4601869119  TIP3      2797            0.0000000000
     27107      2957  TIP3      H2              4.4102718486      -28.8136555807       39.5224545177  TIP3      2797            0.0000000000
     27108      2958  TIP3      OH2            13.2144264538      -18.9175354205       38.8486602591  TIP3      2798            0.0000000000
     27109      2958  TIP3      H1             12.6378344522      -19.6834350242       39.0424236562  TIP3      2798            0.0000000000
     27110      2958  TIP3      H2             13.9827484465      -19.3286860663       38.3968479004  TIP3      2798            0.0000000000
     27111      2959  TIP3      OH2            17.3138089772      -19.5948438848       38.8518736107  TIP3      2799            0.0000000000
     27112      2959  TIP3      H1             17.4920800119      -20.2759095692       39.5275198938  TIP3      2799            0.0000000000
     27113      2959  TIP3      H2             18.2188415683      -19.4058028360       38.5118705678  TIP3      2799            0.0000000000
     27114      2960  TIP3      OH2             8.0727111645      -23.4865429020       38.8959567799  TIP3      2800            0.0000000000
     27115      2960  TIP3      H1              8.4211183808      -23.7494790824       39.7656902277  TIP3      2800            0.0000000000
     27116      2960  TIP3      H2              8.8082533946      -23.7804784439       38.3189342410  TIP3      2800            0.0000000000
     27117      2961  TIP3      OH2            14.2938175516      -22.2634175294       39.0072393514  TIP3      2801            0.0000000000
     27118      2961  TIP3      H1             14.2121488713      -22.2000125179       39.9877218500  TIP3      2801            0.0000000000
     27119      2961  TIP3      H2             14.3395952408      -23.2439748893       38.9132329931  TIP3      2801            0.0000000000
     27120      2962  TIP3      OH2             9.4280023465      -25.3364722665       41.0300527091  TIP3      2802            0.0000000000
     27121      2962  TIP3      H1              9.1991199172      -25.8783770385       41.8047128810  TIP3      2802            0.0000000000
     27122      2962  TIP3      H2              9.7939272465      -26.0111260928       40.4139516597  TIP3      2802            0.0000000000
     27123      2963  TIP3      OH2            10.2609825852      -27.1993276097       39.3514105186  TIP3      2803            0.0000000000
     27124      2963  TIP3      H1             10.1782768129      -27.0791603596       38.3870678879  TIP3      2803            0.0000000000
     27125      2963  TIP3      H2             11.2277663687      -27.1858224562       39.5063548195  TIP3      2803            0.0000000000
     27126      2964  TIP3      OH2            20.2638388137      -24.8307807217       38.7882380661  TIP3      2804            0.0000000000
     27127      2964  TIP3      H1             19.6808651414      -25.3123659970       38.1787928420  TIP3      2804            0.0000000000
     27128      2964  TIP3      H2             19.9253029323      -23.9076194156       38.7424991574  TIP3      2804            0.0000000000
     27129      2965  TIP3      OH2            10.4572066767      -16.8425138863       40.5439478545  TIP3      2805            0.0000000000
     27130      2965  TIP3      H1             11.1368440690      -16.5342776770       41.1675217615  TIP3      2805            0.0000000000
     27131      2965  TIP3      H2             10.5512622361      -16.1426280294       39.8513394260  TIP3      2805            0.0000000000
     27132      2966  TIP3      OH2             3.6141178745      -22.1934883076       40.4613505005  TIP3      2806            0.0000000000
     27133      2966  TIP3      H1              4.4698914030      -22.4306808509       40.8564674290  TIP3      2806            0.0000000000
     27134      2966  TIP3      H2              3.6082137267      -22.7882358846       39.6945691098  TIP3      2806            0.0000000000
     27135      2967  TIP3      OH2            21.3149534166      -25.5438624445       41.1439882607  TIP3      2807            0.0000000000
     27136      2967  TIP3      H1             20.9210590743      -25.4905364579       40.2440938625  TIP3      2807            0.0000000000
     27137      2967  TIP3      H2             21.5586780855      -24.6100633450       41.3030355147  TIP3      2807            0.0000000000
     27138      2968  TIP3      OH2            19.7211362696      -28.4902462529       39.8071117118  TIP3      2808            0.0000000000
     27139      2968  TIP3      H1             20.0665569970      -28.0689632234       39.0127055631  TIP3      2808            0.0000000000
     27140      2968  TIP3      H2             18.9348463524      -28.9512368109       39.4676954594  TIP3      2808            0.0000000000
     27141      2969  TIP3      OH2            18.9356002116      -32.2303226296       39.0406910808  TIP3      2809            0.0000000000
     27142      2969  TIP3      H1             19.8426563631      -31.8597291358       39.1765245489  TIP3      2809            0.0000000000
     27143      2969  TIP3      H2             18.4488901218      -31.4459136738       38.6818883883  TIP3      2809            0.0000000000
     27144      2970  TIP3      OH2            21.0365829212      -33.0848381570       41.4782032104  TIP3      2810            0.0000000000
     27145      2970  TIP3      H1             21.1926353850      -33.4348300558       40.5712498685  TIP3      2810            0.0000000000
     27146      2970  TIP3      H2             21.2891502072      -32.1658029430       41.2398775638  TIP3      2810            0.0000000000
     27147      2971  TIP3      OH2             4.2907064937      -34.1894341772       41.6735821984  TIP3      2811            0.0000000000
     27148      2971  TIP3      H1              4.8493786793      -33.6189833752       42.2407455561  TIP3      2811            0.0000000000
     27149      2971  TIP3      H2              3.5582045568      -33.5726336928       41.4946218501  TIP3      2811            0.0000000000
     27150      2972  TIP3      OH2             6.1209577792      -32.5994289335       39.9187270600  TIP3      2812            0.0000000000
     27151      2972  TIP3      H1              6.8635709978      -32.7498517208       39.3128424772  TIP3      2812            0.0000000000
     27152      2972  TIP3      H2              6.5651290993      -32.4226539494       40.7708510587  TIP3      2812            0.0000000000
     27153      2973  TIP3      OH2            13.2627022453      -17.5257926657       41.1999252493  TIP3      2813            0.0000000000
     27154      2973  TIP3      H1             14.0419530720      -17.0078476051       40.9580712347  TIP3      2813            0.0000000000
     27155      2973  TIP3      H2             13.0081187671      -17.7934796530       40.2941851120  TIP3      2813            0.0000000000
     27156      2974  TIP3      OH2             5.6221844882      -17.7952212840       38.9288214867  TIP3      2814            0.0000000000
     27157      2974  TIP3      H1              5.3491782363      -17.4897930458       39.8137586478  TIP3      2814            0.0000000000
     27158      2974  TIP3      H2              5.9668195508      -18.6903616441       39.0641876787  TIP3      2814            0.0000000000
     27159      2975  TIP3      OH2            31.9072060256      -27.2375633934       40.0072283866  TIP3      2815            0.0000000000
     27160      2975  TIP3      H1             32.8211247895      -27.3928752034       40.3081320828  TIP3      2815            0.0000000000
     27161      2975  TIP3      H2             31.8801419411      -27.8491789399       39.2486258813  TIP3      2815            0.0000000000
     27162      2976  TIP3      OH2            34.7944831227      -26.4343348961       41.4809420305  TIP3      2816            0.0000000000
     27163      2976  TIP3      H1             35.3592665110      -26.2099761446       42.2550993642  TIP3      2816            0.0000000000
     27164      2976  TIP3      H2             34.0046164282      -25.8863157258       41.5985871101  TIP3      2816            0.0000000000
     27165      2977  TIP3      OH2            35.0077111746      -17.5912970801       41.0364703775  TIP3      2817            0.0000000000
     27166      2977  TIP3      H1             35.3973873232      -18.4694912352       40.9765048616  TIP3      2817            0.0000000000
     27167      2977  TIP3      H2             35.7093162775      -17.0967317178       41.5244455104  TIP3      2817            0.0000000000
     27168      2978  TIP3      OH2            31.8330820986      -31.8452247459       40.1995141632  TIP3      2818            0.0000000000
     27169      2978  TIP3      H1             31.1868233578      -31.6317807623       40.8811439492  TIP3      2818            0.0000000000
     27170      2978  TIP3      H2             31.3129392139      -32.4844350649       39.6706427796  TIP3      2818            0.0000000000
     27171      2979  TIP3      OH2            27.4943754034      -31.0695786593       39.1379157793  TIP3      2819            0.0000000000
     27172      2979  TIP3      H1             27.0989619584      -31.4971644472       39.9157391821  TIP3      2819            0.0000000000
     27173      2979  TIP3      H2             27.0307211665      -31.5568570677       38.4310297601  TIP3      2819            0.0000000000
     27174      2980  TIP3      OH2            23.3357061584      -30.6021838091       41.8671353924  TIP3      2820            0.0000000000
     27175      2980  TIP3      H1             23.2360866897      -30.9893231836       40.9715860747  TIP3      2820            0.0000000000
     27176      2980  TIP3      H2             22.4285394675      -30.2525664257       41.9744911357  TIP3      2820            0.0000000000
     27177      2981  TIP3      OH2            26.6627690768      -28.3022795685       40.7938955487  TIP3      2821            0.0000000000
     27178      2981  TIP3      H1             26.0816651062      -28.6124793439       40.0727481731  TIP3      2821            0.0000000000
     27179      2981  TIP3      H2             27.4559509840      -28.0965435437       40.2674715518  TIP3      2821            0.0000000000
     27180      2982  TIP3      OH2            33.9165600480      -30.4361714564       40.5718661574  TIP3      2822            0.0000000000
     27181      2982  TIP3      H1             33.0960105248      -30.9872001277       40.4633383264  TIP3      2822            0.0000000000
     27182      2982  TIP3      H2             33.6939423928      -29.8764724927       41.3368017551  TIP3      2822            0.0000000000
     27183      2983  TIP3      OH2            34.5964589953      -28.9156442137       42.6403294227  TIP3      2823            0.0000000000
     27184      2983  TIP3      H1             35.3484799470      -29.5594132920       42.6466732123  TIP3      2823            0.0000000000
     27185      2983  TIP3      H2             34.9679347473      -28.2528889541       42.0182917398  TIP3      2823            0.0000000000
     27186      2984  TIP3      OH2            31.9679100948      -22.3128531238       41.5283664418  TIP3      2824            0.0000000000
     27187      2984  TIP3      H1             31.4236847811      -21.5196247864       41.7047972337  TIP3      2824            0.0000000000
     27188      2984  TIP3      H2             31.5078613618      -22.9798681470       42.0435335887  TIP3      2824            0.0000000000
     27189      2985  TIP3      OH2            23.8034682991      -25.8420209260       40.2567951369  TIP3      2825            0.0000000000
     27190      2985  TIP3      H1             24.1502995716      -25.0673869157       40.7412550439  TIP3      2825            0.0000000000
     27191      2985  TIP3      H2             22.8720740280      -25.8358165738       40.5845769684  TIP3      2825            0.0000000000
     27192      2986  TIP3      OH2            29.6183899823      -20.9606184440       38.8850940315  TIP3      2826            0.0000000000
     27193      2986  TIP3      H1             29.5992452835      -21.4368572904       38.0471780126  TIP3      2826            0.0000000000
     27194      2986  TIP3      H2             29.3404305279      -21.6341882606       39.5189665704  TIP3      2826            0.0000000000
     27195      2987  TIP3      OH2            28.2651897010      -22.0460063567       41.5644602690  TIP3      2827            0.0000000000
     27196      2987  TIP3      H1             28.9565286987      -21.9412691396       42.2359065937  TIP3      2827            0.0000000000
     27197      2987  TIP3      H2             28.1317738604      -21.1070781177       41.3346179372  TIP3      2827            0.0000000000
     27198      2988  TIP3      OH2            24.6720154355      -23.8677539079       41.7845808578  TIP3      2828            0.0000000000
     27199      2988  TIP3      H1             24.2517268073      -24.2970111785       42.5809187477  TIP3      2828            0.0000000000
     27200      2988  TIP3      H2             25.6008246581      -24.0470174138       41.9998047957  TIP3      2828            0.0000000000
     27201      2989  TIP3      OH2            30.4687143312      -20.0330417029       42.0023975816  TIP3      2829            0.0000000000
     27202      2989  TIP3      H1             29.5803330036      -19.6205103708       41.9448778741  TIP3      2829            0.0000000000
     27203      2989  TIP3      H2             31.0102362318      -19.2483318076       41.7436413929  TIP3      2829            0.0000000000
     27204      2990  TIP3      OH2            28.0875272293      -18.9326211468       41.7753824019  TIP3      2830            0.0000000000
     27205      2990  TIP3      H1             27.7889176827      -18.3751091985       41.0398166320  TIP3      2830            0.0000000000
     27206      2990  TIP3      H2             28.3704086700      -18.2517721245       42.4270106923  TIP3      2830            0.0000000000
     27207      2991  TIP3      OH2            26.8733254864      -32.2959454965       41.5393523120  TIP3      2831            0.0000000000
     27208      2991  TIP3      H1             26.8505245626      -31.4366768065       41.9869847438  TIP3      2831            0.0000000000
     27209      2991  TIP3      H2             27.8415747895      -32.3697868350       41.5000718740  TIP3      2831            0.0000000000
     27210      2992  TIP3      OH2            25.0567362899      -21.5270744000       39.9507519273  TIP3      2832            0.0000000000
     27211      2992  TIP3      H1             25.3182806397      -21.4627560394       40.8788145032  TIP3      2832            0.0000000000
     27212      2992  TIP3      H2             25.4800489556      -22.3680907016       39.6998438325  TIP3      2832            0.0000000000
     27213      2993  TIP3      OH2            23.8047709943      -28.6528533626       39.5721926491  TIP3      2833            0.0000000000
     27214      2993  TIP3      H1             23.9802134511      -27.9394607756       40.2131352963  TIP3      2833            0.0000000000
     27215      2993  TIP3      H2             23.2937310777      -29.2909024469       40.1031340268  TIP3      2833            0.0000000000
     27216      2994  TIP3      OH2            31.9132885388      -19.1551791178       38.6181758147  TIP3      2834            0.0000000000
     27217      2994  TIP3      H1             31.3348266120      -19.9130277169       38.8639820286  TIP3      2834            0.0000000000
     27218      2994  TIP3      H2             32.7300739119      -19.6185075743       38.3075431866  TIP3      2834            0.0000000000
     27219      2995  TIP3      OH2            27.1020206139      -23.7406414658       38.9772230461  TIP3      2835            0.0000000000
     27220      2995  TIP3      H1             27.3399865400      -24.1599760084       39.8306799691  TIP3      2835            0.0000000000
     27221      2995  TIP3      H2             27.9664254051      -23.7950109771       38.5007961018  TIP3      2835            0.0000000000
     27222      2996  TIP3      OH2            32.3475316767      -22.2262724046       38.7320592106  TIP3      2836            0.0000000000
     27223      2996  TIP3      H1             32.2237983179      -22.1932166545       39.7037739032  TIP3      2836            0.0000000000
     27224      2996  TIP3      H2             32.2564049631      -23.1895208765       38.5645695855  TIP3      2836            0.0000000000
     27225      2997  TIP3      OH2            27.6805971256      -25.4028011885       41.0948262841  TIP3      2837            0.0000000000
     27226      2997  TIP3      H1             27.5893595701      -25.9313100750       41.9043893849  TIP3      2837            0.0000000000
     27227      2997  TIP3      H2             28.1090483430      -26.0461712944       40.4912586066  TIP3      2837            0.0000000000
     27228      2998  TIP3      OH2            29.1078997579      -27.1052698209       39.4039213089  TIP3      2838            0.0000000000
     27229      2998  TIP3      H1             29.0059254249      -27.0406511371       38.4313048317  TIP3      2838            0.0000000000
     27230      2998  TIP3      H2             30.0831516582      -27.0665466850       39.4917580580  TIP3      2838            0.0000000000
     27231      2999  TIP3      OH2            28.5484603174      -16.3518446922       39.4804073912  TIP3      2839            0.0000000000
     27232      2999  TIP3      H1             29.4152458657      -16.6385349980       39.8260886769  TIP3      2839            0.0000000000
     27233      2999  TIP3      H2             28.2578112276      -15.8867535939       40.2749090065  TIP3      2839            0.0000000000
     27234      3000  TIP3      OH2            22.2223959200      -22.3925059410       40.8686286357  TIP3      2840            0.0000000000
     27235      3000  TIP3      H1             23.1374475097      -22.3010889521       40.5408714183  TIP3      2840            0.0000000000
     27236      3000  TIP3      H2             21.7280766466      -21.9528260453       40.1510741325  TIP3      2840            0.0000000000
     27237      3001  TIP3      OH2            23.5723370238      -34.1044155539       41.9030340341  TIP3      2841            0.0000000000
     27238      3001  TIP3      H1             24.0298292182      -33.5768084828       41.2058384123  TIP3      2841            0.0000000000
     27239      3001  TIP3      H2             22.7957354910      -33.5394798616       42.0485878168  TIP3      2841            0.0000000000
     27240      3002  TIP3      OH2            24.7844759194      -32.6862245777       39.9352036020  TIP3      2842            0.0000000000
     27241      3002  TIP3      H1             25.2957535843      -33.1988536505       39.2764653513  TIP3      2842            0.0000000000
     27242      3002  TIP3      H2             25.4426621345      -32.5878924299       40.6517312537  TIP3      2842            0.0000000000
     27243      3003  TIP3      OH2            32.3053292932      -18.2471527101       41.0940441351  TIP3      2843            0.0000000000
     27244      3003  TIP3      H1             33.2103863127      -17.8694662595       41.1096201105  TIP3      2843            0.0000000000
     27245      3003  TIP3      H2             32.1249987888      -18.2644947667       40.1285369691  TIP3      2843            0.0000000000
     27246      3004  TIP3      OH2            24.6811491745      -17.9346822854       39.3977440659  TIP3      2844            0.0000000000
     27247      3004  TIP3      H1             24.1908178999      -18.0550048289       40.2316526770  TIP3      2844            0.0000000000
     27248      3004  TIP3      H2             25.4649787545      -18.5167878629       39.4913045689  TIP3      2844            0.0000000000
     27249      3005  TIP3      OH2           -24.2952686107       -8.1738653528       39.6890112012  TIP3      2845            0.0000000000
     27250      3005  TIP3      H1            -23.5741732145       -7.5499315311       39.8381557942  TIP3      2845            0.0000000000
     27251      3005  TIP3      H2            -24.1677445563       -8.5038156051       38.7823930551  TIP3      2845            0.0000000000
     27252      3006  TIP3      OH2           -22.0006445284       -7.5693893184       41.4660745173  TIP3      2846            0.0000000000
     27253      3006  TIP3      H1            -22.1804316641       -6.8585770316       42.1154813460  TIP3      2846            0.0000000000
     27254      3006  TIP3      H2            -21.4416859233       -7.0787069083       40.8039638039  TIP3      2846            0.0000000000
     27255      3007  TIP3      OH2           -18.7416795415      -15.7544243696       42.0177523782  TIP3      2847            0.0000000000
     27256      3007  TIP3      H1            -19.0817014223      -15.1298308240       42.6835177887  TIP3      2847            0.0000000000
     27257      3007  TIP3      H2            -18.0575988263      -15.1809410982       41.5872095844  TIP3      2847            0.0000000000
     27258      3008  TIP3      OH2           -17.3301825191       -1.3411361532       39.6611627350  TIP3      2848            0.0000000000
     27259      3008  TIP3      H1            -17.2227736304       -0.3941244368       39.8940847032  TIP3      2848            0.0000000000
     27260      3008  TIP3      H2            -16.6451054268       -1.7063053906       40.2541621479  TIP3      2848            0.0000000000
     27261      3009  TIP3      OH2           -21.3938335596        1.0622011594       40.7404769543  TIP3      2849            0.0000000000
     27262      3009  TIP3      H1            -21.3348347810        0.3236806607       40.0909831890  TIP3      2849            0.0000000000
     27263      3009  TIP3      H2            -20.8429965123        0.6752960257       41.4603544372  TIP3      2849            0.0000000000
     27264      3010  TIP3      OH2           -20.7283675853       -6.0687231203       39.7399195338  TIP3      2850            0.0000000000
     27265      3010  TIP3      H1            -20.7848140783       -6.0957121089       38.7593063042  TIP3      2850            0.0000000000
     27266      3010  TIP3      H2            -19.7687274873       -5.9198992835       39.8303045511  TIP3      2850            0.0000000000
     27267      3011  TIP3      OH2           -24.9525123293      -12.7540554842       40.1041739049  TIP3      2851            0.0000000000
     27268      3011  TIP3      H1            -25.7510635140      -12.2043405032       40.0257116067  TIP3      2851            0.0000000000
     27269      3011  TIP3      H2            -25.2576869284      -13.5234459901       39.6030543804  TIP3      2851            0.0000000000
     27270      3012  TIP3      OH2           -28.0728121668      -12.0459597013       39.6513648386  TIP3      2852            0.0000000000
     27271      3012  TIP3      H1            -28.9972810448      -12.3393083835       39.6769877186  TIP3      2852            0.0000000000
     27272      3012  TIP3      H2            -27.9590928244      -11.8423360813       38.7000617000  TIP3      2852            0.0000000000
     27273      3013  TIP3      OH2           -33.7614350697      -12.2670693909       41.5380201620  TIP3      2853            0.0000000000
     27274      3013  TIP3      H1            -33.2078305404      -11.5778484882       41.1185884897  TIP3      2853            0.0000000000
     27275      3013  TIP3      H2            -34.6935388479      -12.0926859149       41.2835264028  TIP3      2853            0.0000000000
     27276      3014  TIP3      OH2           -30.0478097719       -9.6646012306       40.6181293249  TIP3      2854            0.0000000000
     27277      3014  TIP3      H1            -29.7710112542      -10.0793975610       39.7695841122  TIP3      2854            0.0000000000
     27278      3014  TIP3      H2            -29.4948427476       -8.8808415445       40.5287041125  TIP3      2854            0.0000000000
     27279      3015  TIP3      OH2           -22.2827003064      -12.9760508488       40.7665673312  TIP3      2855            0.0000000000
     27280      3015  TIP3      H1            -23.2400991543      -12.7584245413       40.7462360147  TIP3      2855            0.0000000000
     27281      3015  TIP3      H2            -21.8924504770      -12.1667352767       41.1725107539  TIP3      2855            0.0000000000
     27282      3016  TIP3      OH2           -21.5579019638      -10.4732914741       41.6164496754  TIP3      2856            0.0000000000
     27283      3016  TIP3      H1            -21.2012455717      -10.7040271908       42.4980607591  TIP3      2856            0.0000000000
     27284      3016  TIP3      H2            -21.1299116325       -9.6020580834       41.4791243607  TIP3      2856            0.0000000000
     27285      3017  TIP3      OH2           -24.3037820093       -3.3461786814       42.0191700533  TIP3      2857            0.0000000000
     27286      3017  TIP3      H1            -24.7446533256       -2.6466002759       41.5154408293  TIP3      2857            0.0000000000
     27287      3017  TIP3      H2            -24.8336470159       -4.1266475815       41.7438973167  TIP3      2857            0.0000000000
     27288      3018  TIP3      OH2           -17.0978387858      -10.4369975124       41.6593299153  TIP3      2858            0.0000000000
     27289      3018  TIP3      H1            -17.7650040313      -10.3260014844       40.9367098056  TIP3      2858            0.0000000000
     27290      3018  TIP3      H2            -17.2094337819       -9.5618246205       42.0882554335  TIP3      2858            0.0000000000
     27291      3019  TIP3      OH2           -33.4350777577       -7.4984577494       40.4541690366  TIP3      2859            0.0000000000
     27292      3019  TIP3      H1            -32.8219385883       -6.7715746974       40.7123092626  TIP3      2859            0.0000000000
     27293      3019  TIP3      H2            -34.1457443509       -7.0126054889       39.9902568324  TIP3      2859            0.0000000000
     27294      3020  TIP3      OH2           -20.7804296818       -3.1721543129       40.4551897368  TIP3      2860            0.0000000000
     27295      3020  TIP3      H1            -20.7605892229       -3.5667359464       41.3475926174  TIP3      2860            0.0000000000
     27296      3020  TIP3      H2            -21.7112836272       -3.3367399121       40.1984452862  TIP3      2860            0.0000000000
     27297      3021  TIP3      OH2           -16.7882733677        1.0233719767       40.6604458695  TIP3      2861            0.0000000000
     27298      3021  TIP3      H1            -16.0553714938        1.6005358687       40.8868985760  TIP3      2861            0.0000000000
     27299      3021  TIP3      H2            -17.5621087669        1.4986085539       41.0132111005  TIP3      2861            0.0000000000
     27300      3022  TIP3      OH2           -26.5777806028       -2.7093729461       38.5936036944  TIP3      2862            0.0000000000
     27301      3022  TIP3      H1            -27.0720898360       -3.3914606434       38.0774345786  TIP3      2862            0.0000000000
     27302      3022  TIP3      H2            -26.2978622035       -3.3001253986       39.3264512695  TIP3      2862            0.0000000000
     27303      3023  TIP3      OH2           -28.0961599070       -2.4821964148       41.2533653311  TIP3      2863            0.0000000000
     27304      3023  TIP3      H1            -28.5109253357       -3.1680081548       41.7997144137  TIP3      2863            0.0000000000
     27305      3023  TIP3      H2            -27.7969228334       -1.8778329969       41.9600271732  TIP3      2863            0.0000000000
     27306      3024  TIP3      OH2           -32.0251397638       -5.3625724914       41.2033732538  TIP3      2864            0.0000000000
     27307      3024  TIP3      H1            -32.7668666202       -4.7458881489       41.0074361726  TIP3      2864            0.0000000000
     27308      3024  TIP3      H2            -31.2457714748       -4.8487689762       40.9578898685  TIP3      2864            0.0000000000
     27309      3025  TIP3      OH2           -25.5330924266       -1.1196400231       41.1383050765  TIP3      2865            0.0000000000
     27310      3025  TIP3      H1            -26.2791041232       -0.8567518119       41.7041685747  TIP3      2865            0.0000000000
     27311      3025  TIP3      H2            -24.9818458684       -0.3158541723       41.2156026024  TIP3      2865            0.0000000000
     27312      3026  TIP3      OH2           -27.8333506501       -0.1136710484       42.5254050735  TIP3      2866            0.0000000000
     27313      3026  TIP3      H1            -27.8648356457        0.7431111630       42.0437294815  TIP3      2866            0.0000000000
     27314      3026  TIP3      H2            -28.5727558319        0.1056729727       43.1174575208  TIP3      2866            0.0000000000
     27315      3027  TIP3      OH2           -30.0633609142      -13.0128051494       41.1973765238  TIP3      2867            0.0000000000
     27316      3027  TIP3      H1            -30.1270736148      -12.7472193487       42.1266974092  TIP3      2867            0.0000000000
     27317      3027  TIP3      H2            -29.1029204553      -12.9084562482       41.0512964380  TIP3      2867            0.0000000000
     27318      3028  TIP3      OH2           -31.0222722110       -2.6817881268       40.0895490673  TIP3      2868            0.0000000000
     27319      3028  TIP3      H1            -30.5829298981       -2.5087890488       40.9390620729  TIP3      2868            0.0000000000
     27320      3028  TIP3      H2            -30.4277329574       -3.3522149578       39.6910494405  TIP3      2868            0.0000000000
     27321      3029  TIP3      OH2           -32.9286668895      -10.1158948416       39.7980938765  TIP3      2869            0.0000000000
     27322      3029  TIP3      H1            -32.0486294602       -9.7933370032       40.0704597551  TIP3      2869            0.0000000000
     27323      3029  TIP3      H2            -33.4408553539       -9.2763337061       39.7192914306  TIP3      2869            0.0000000000
     27324      3030  TIP3      OH2           -25.1683731939       -0.1062407727       38.5828754894  TIP3      2870            0.0000000000
     27325      3030  TIP3      H1            -25.4753674716       -1.0215221440       38.7358808751  TIP3      2870            0.0000000000
     27326      3030  TIP3      H2            -24.2304589711       -0.2967629468       38.3558118810  TIP3      2870            0.0000000000
     27327      3031  TIP3      OH2           -20.5836030992       -0.7123185966       38.8782344315  TIP3      2871            0.0000000000
     27328      3031  TIP3      H1            -20.2357389641       -1.3348562883       39.5497917457  TIP3      2871            0.0000000000
     27329      3031  TIP3      H2            -19.8412740898       -0.7322578793       38.2339276404  TIP3      2871            0.0000000000
     27330      3032  TIP3      OH2           -29.1952084542       -4.6818593981       39.3014018585  TIP3      2872            0.0000000000
     27331      3032  TIP3      H1            -28.4895111900       -4.7831103960       39.9730575530  TIP3      2872            0.0000000000
     27332      3032  TIP3      H2            -28.6723554768       -4.8153391882       38.4836833370  TIP3      2872            0.0000000000
     27333      3033  TIP3      OH2           -23.5469063429       -3.2594534207       38.8182761719  TIP3      2873            0.0000000000
     27334      3033  TIP3      H1            -24.1515053836       -3.4528590663       39.5544727320  TIP3      2873            0.0000000000
     27335      3033  TIP3      H2            -23.6469167940       -4.0563307285       38.2504602684  TIP3      2873            0.0000000000
     27336      3034  TIP3      OH2           -28.3283536293       -6.0673874464       41.7521430258  TIP3      2874            0.0000000000
     27337      3034  TIP3      H1            -28.2291568664       -6.8581215544       41.1884025764  TIP3      2874            0.0000000000
     27338      3034  TIP3      H2            -27.5245034941       -5.6041183615       41.4322340092  TIP3      2874            0.0000000000
     27339      3035  TIP3      OH2           -27.1674066310       -8.3946459948       40.6553421546  TIP3      2875            0.0000000000
     27340      3035  TIP3      H1            -26.9333795378       -9.0584387111       39.9694071693  TIP3      2875            0.0000000000
     27341      3035  TIP3      H2            -26.6272228107       -7.6468423248       40.3089330498  TIP3      2875            0.0000000000
     27342      3036  TIP3      OH2           -17.9776170948       -6.1131566854       38.9970098463  TIP3      2876            0.0000000000
     27343      3036  TIP3      H1            -18.0380490510       -6.5400801293       38.1110925735  TIP3      2876            0.0000000000
     27344      3036  TIP3      H2            -18.2016022370       -5.1719967437       38.7815649114  TIP3      2876            0.0000000000
     27345      3037  TIP3      OH2           -27.0954394164        1.7852327191       40.8566745602  TIP3      2877            0.0000000000
     27346      3037  TIP3      H1            -26.4074302246        2.0642026889       41.4934753112  TIP3      2877            0.0000000000
     27347      3037  TIP3      H2            -27.2267155712        2.6268141436       40.3739676720  TIP3      2877            0.0000000000
     27348      3038  TIP3      OH2           -33.6766418998       -3.2870702641       40.5725489167  TIP3      2878            0.0000000000
     27349      3038  TIP3      H1            -32.8410868665       -2.9277730292       40.2255483214  TIP3      2878            0.0000000000
     27350      3038  TIP3      H2            -34.2285197424       -3.1724488361       39.7804846675  TIP3      2878            0.0000000000
     27351      3039  TIP3      OH2           -15.9861075291       -6.4353117128       40.7642892048  TIP3      2879            0.0000000000
     27352      3039  TIP3      H1            -16.6822170562       -6.4204104131       40.0651863660  TIP3      2879            0.0000000000
     27353      3039  TIP3      H2            -16.5439485511       -6.7400983426       41.5145192393  TIP3      2879            0.0000000000
     27354      3040  TIP3      OH2           -18.6108413631      -10.1781090712       39.2938422147  TIP3      2880            0.0000000000
     27355      3040  TIP3      H1            -18.5705189781       -9.5060308835       38.6083410924  TIP3      2880            0.0000000000
     27356      3040  TIP3      H2            -18.7653051713      -10.9793652953       38.7860560659  TIP3      2880            0.0000000000
     27357      3041  TIP3      OH2           -18.7631625821      -13.4671781481       38.4172263532  TIP3      2881            0.0000000000
     27358      3041  TIP3      H1            -18.3956115148      -13.2960732442       39.3028770673  TIP3      2881            0.0000000000
     27359      3041  TIP3      H2            -19.6852997374      -13.1330271977       38.4448795278  TIP3      2881            0.0000000000
     27360      3042  TIP3      OH2           -16.9505888919      -14.3038214762       40.6610021914  TIP3      2882            0.0000000000
     27361      3042  TIP3      H1            -16.8206341708      -14.8186772879       39.8363481054  TIP3      2882            0.0000000000
     27362      3042  TIP3      H2            -16.2634872019      -13.6092044212       40.6042204006  TIP3      2882            0.0000000000
     27363      3043  TIP3      OH2           -33.0188437188      -15.6654682250       41.3687800533  TIP3      2883            0.0000000000
     27364      3043  TIP3      H1            -32.8175315425      -14.8041839645       40.9546929799  TIP3      2883            0.0000000000
     27365      3043  TIP3      H2            -33.2087371219      -15.3613800925       42.2759710677  TIP3      2883            0.0000000000
     27366      3044  TIP3      OH2           -32.1343332857      -13.6772665957       39.6873540125  TIP3      2884            0.0000000000
     27367      3044  TIP3      H1            -31.6470624023      -14.3458640857       39.1453647006  TIP3      2884            0.0000000000
     27368      3044  TIP3      H2            -31.3965295086      -13.4877102768       40.3146097125  TIP3      2884            0.0000000000
     27369      3045  TIP3      OH2           -24.1216675545        1.4738266890       41.0136642644  TIP3      2885            0.0000000000
     27370      3045  TIP3      H1            -23.1492772854        1.5318743664       40.9758225086  TIP3      2885            0.0000000000
     27371      3045  TIP3      H2            -24.3617800781        1.6415415028       40.0927153585  TIP3      2885            0.0000000000
     27372      3046  TIP3      OH2           -32.0860946717        1.4690982066       39.6870701382  TIP3      2886            0.0000000000
     27373      3046  TIP3      H1            -32.4694491134        1.2074188476       40.5490403358  TIP3      2886            0.0000000000
     27374      3046  TIP3      H2            -31.6839198607        0.6341279838       39.4147344751  TIP3      2886            0.0000000000
     27375      3047  TIP3      OH2            -5.7019658532       -7.9196835249       39.8846685653  TIP3      2887            0.0000000000
     27376      3047  TIP3      H1             -5.0144641133       -7.5593247168       40.4866764426  TIP3      2887            0.0000000000
     27377      3047  TIP3      H2             -5.2830318524       -8.7622294170       39.6604195659  TIP3      2887            0.0000000000
     27378      3048  TIP3      OH2            -3.4984999342       -7.5453121155       41.4969689355  TIP3      2888            0.0000000000
     27379      3048  TIP3      H1             -3.2843617078       -7.0452345134       42.3052446472  TIP3      2888            0.0000000000
     27380      3048  TIP3      H2             -3.0248584387       -7.0302480985       40.7869144041  TIP3      2888            0.0000000000
     27381      3049  TIP3      OH2             0.2498348867      -15.8368275199       41.8066504534  TIP3      2889            0.0000000000
     27382      3049  TIP3      H1             -0.4803843974      -15.6512143715       42.4148118066  TIP3      2889            0.0000000000
     27383      3049  TIP3      H2              0.6353041021      -14.9480880523       41.6696784905  TIP3      2889            0.0000000000
     27384      3050  TIP3      OH2             1.5317306029       -1.2116749384       40.1286309925  TIP3      2890            0.0000000000
     27385      3050  TIP3      H1              1.8836338070       -0.2920580564       40.1794232309  TIP3      2890            0.0000000000
     27386      3050  TIP3      H2              2.3534371155       -1.7418943508       40.2378208742  TIP3      2890            0.0000000000
     27387      3051  TIP3      OH2            -3.0728417883        1.2415839760       40.8948382955  TIP3      2891            0.0000000000
     27388      3051  TIP3      H1             -2.4516171247        0.7176435402       40.3458647248  TIP3      2891            0.0000000000
     27389      3051  TIP3      H2             -2.5692634155        1.2613999140       41.7207648101  TIP3      2891            0.0000000000
     27390      3052  TIP3      OH2            -2.0897947660       -6.3111355361       39.6346704560  TIP3      2892            0.0000000000
     27391      3052  TIP3      H1             -2.1496593788       -6.4501471462       38.6679187412  TIP3      2892            0.0000000000
     27392      3052  TIP3      H2             -1.1613583091       -5.9837057659       39.6500235906  TIP3      2892            0.0000000000
     27393      3053  TIP3      OH2            -6.2350582538      -13.1229386711       40.6554194168  TIP3      2893            0.0000000000
     27394      3053  TIP3      H1             -5.3984775785      -12.6725596709       40.9170417153  TIP3      2893            0.0000000000
     27395      3053  TIP3      H2             -5.9990768569      -13.3436225066       39.7385603930  TIP3      2893            0.0000000000
     27396      3054  TIP3      OH2            -9.9833941679      -12.3452125640       39.3463463487  TIP3      2894            0.0000000000
     27397      3054  TIP3      H1            -10.7270929902      -12.5217597999       39.9566314443  TIP3      2894            0.0000000000
     27398      3054  TIP3      H2            -10.4466782876      -11.8437325229       38.6423754026  TIP3      2894            0.0000000000
     27399      3055  TIP3      OH2           -15.2690561815      -12.4398267883       41.7026400436  TIP3      2895            0.0000000000
     27400      3055  TIP3      H1            -14.7670068715      -11.9152040594       41.0477297216  TIP3      2895            0.0000000000
     27401      3055  TIP3      H2            -15.9818872749      -11.7916047545       41.9103604242  TIP3      2895            0.0000000000
     27402      3056  TIP3      OH2           -10.4498658503       -9.6264288342       40.5631328602  TIP3      2896            0.0000000000
     27403      3056  TIP3      H1            -10.7879056263      -10.0824488862       39.7731416657  TIP3      2896            0.0000000000
     27404      3056  TIP3      H2             -9.8579497508       -9.0152348661       40.0887820195  TIP3      2896            0.0000000000
     27405      3057  TIP3      OH2            -3.8422854011      -12.0844572336       40.9693295686  TIP3      2897            0.0000000000
     27406      3057  TIP3      H1             -4.1431844330      -11.2345461901       40.6068969182  TIP3      2897            0.0000000000
     27407      3057  TIP3      H2             -3.1165375868      -11.7062265059       41.5144400707  TIP3      2897            0.0000000000
     27408      3058  TIP3      OH2            -2.6434976665      -10.0999298411       42.1212005058  TIP3      2898            0.0000000000
     27409      3058  TIP3      H1             -2.3210697422       -9.7785970608       42.9772437285  TIP3      2898            0.0000000000
     27410      3058  TIP3      H2             -2.5860007015       -9.2986623451       41.5703655808  TIP3      2898            0.0000000000
     27411      3059  TIP3      OH2            -5.4042880028       -3.7026377121       41.5668408591  TIP3      2899            0.0000000000
     27412      3059  TIP3      H1             -5.9359785809       -2.8854239725       41.6919518666  TIP3      2899            0.0000000000
     27413      3059  TIP3      H2             -5.8922099569       -4.3337270159       42.1018397718  TIP3      2899            0.0000000000
     27414      3060  TIP3      OH2             2.1110079927       -9.9329857722       42.0377879560  TIP3      2900            0.0000000000
     27415      3060  TIP3      H1              1.6285034631      -10.2968774896       41.2755368790  TIP3      2900            0.0000000000
     27416      3060  TIP3      H2              2.2564556721       -9.0108222572       41.7534437505  TIP3      2900            0.0000000000
     27417      3061  TIP3      OH2           -13.4595828537       -7.3519584741       40.2383791705  TIP3      2901            0.0000000000
     27418      3061  TIP3      H1            -12.9052264833       -6.6632944208       40.6431860564  TIP3      2901            0.0000000000
     27419      3061  TIP3      H2            -14.3340496715       -7.1034277229       40.6378049713  TIP3      2901            0.0000000000
     27420      3062  TIP3      OH2            -1.9756823842       -3.1044800348       40.4630312367  TIP3      2902            0.0000000000
     27421      3062  TIP3      H1             -1.9198847114       -2.6209230490       41.3013689574  TIP3      2902            0.0000000000
     27422      3062  TIP3      H2             -2.8961434976       -3.4052991665       40.4529279393  TIP3      2902            0.0000000000
     27423      3063  TIP3      OH2             2.1336920659        1.2581089534       40.7307825292  TIP3      2903            0.0000000000
     27424      3063  TIP3      H1              2.8750389844        1.7918435798       41.0327842930  TIP3      2903            0.0000000000
     27425      3063  TIP3      H2              1.4035559547        1.8961762319       40.6752669309  TIP3      2903            0.0000000000
     27426      3064  TIP3      OH2            -8.3089981635       -1.7256318968       38.7539770865  TIP3      2904            0.0000000000
     27427      3064  TIP3      H1             -8.4428168341       -2.2201279273       37.9289216670  TIP3      2904            0.0000000000
     27428      3064  TIP3      H2             -8.7171325297       -2.3442500256       39.3879713715  TIP3      2904            0.0000000000
     27429      3065  TIP3      OH2            -9.4812899212       -3.0386186323       41.2312814239  TIP3      2905            0.0000000000
     27430      3065  TIP3      H1             -8.7820002950       -3.3687607707       41.8115655228  TIP3      2905            0.0000000000
     27431      3065  TIP3      H2             -9.5890879617       -2.1178805796       41.5461428135  TIP3      2905            0.0000000000
     27432      3066  TIP3      OH2           -12.7299559038       -5.0232307973       41.5069679825  TIP3      2906            0.0000000000
     27433      3066  TIP3      H1            -13.2636486973       -5.4301820318       42.2070552877  TIP3      2906            0.0000000000
     27434      3066  TIP3      H2            -11.8279977078       -5.1643080232       41.8697610095  TIP3      2906            0.0000000000
     27435      3067  TIP3      OH2            -6.8725326597       -1.3877905964       41.6631478787  TIP3      2907            0.0000000000
     27436      3067  TIP3      H1             -7.7939499318       -1.0498329239       41.6173459440  TIP3      2907            0.0000000000
     27437      3067  TIP3      H2             -6.4446893385       -0.8722508241       40.9580662683  TIP3      2907            0.0000000000
     27438      3068  TIP3      OH2            -9.3884215866       -0.3849834399       41.8425421982  TIP3      2908            0.0000000000
     27439      3068  TIP3      H1             -9.6086656936        0.2022920141       41.0983775751  TIP3      2908            0.0000000000
     27440      3068  TIP3      H2             -9.4003738921        0.2529232733       42.5772630654  TIP3      2908            0.0000000000
     27441      3069  TIP3      OH2           -11.4826180053      -12.9320089105       41.6044082811  TIP3      2909            0.0000000000
     27442      3069  TIP3      H1            -11.8931559914      -12.1294037849       41.9725655874  TIP3      2909            0.0000000000
     27443      3069  TIP3      H2            -10.7017204580      -12.9918604854       42.1944406021  TIP3      2909            0.0000000000
     27444      3070  TIP3      OH2           -12.5828108479       -2.5980755382       40.2729995735  TIP3      2910            0.0000000000
     27445      3070  TIP3      H1            -12.0356626700       -2.1172021718       40.9026649718  TIP3      2910            0.0000000000
     27446      3070  TIP3      H2            -12.1744858868       -3.4872688210       40.3344303577  TIP3      2910            0.0000000000
     27447      3071  TIP3      OH2           -14.4077902455      -10.2606351511       39.9563349713  TIP3      2911            0.0000000000
     27448      3071  TIP3      H1            -13.8670750166       -9.5197174508       40.2853162532  TIP3      2911            0.0000000000
     27449      3071  TIP3      H2            -15.3092793874       -9.9189364081       40.0866835280  TIP3      2911            0.0000000000
     27450      3072  TIP3      OH2            -5.9451955392       -0.0767725089       38.8577287829  TIP3      2912            0.0000000000
     27451      3072  TIP3      H1             -6.5573487362       -0.8217298480       38.6834701737  TIP3      2912            0.0000000000
     27452      3072  TIP3      H2             -5.1223650575       -0.4105656017       38.4371078051  TIP3      2912            0.0000000000
     27453      3073  TIP3      OH2            -1.6321331713       -0.2939206849       39.0411233454  TIP3      2913            0.0000000000
     27454      3073  TIP3      H1             -1.3971415192       -1.0331513575       39.6236446439  TIP3      2913            0.0000000000
     27455      3073  TIP3      H2             -0.8883618919       -0.3187696364       38.4009516328  TIP3      2913            0.0000000000
     27456      3074  TIP3      OH2           -10.6379148129       -4.8932919738       38.5287836497  TIP3      2914            0.0000000000
     27457      3074  TIP3      H1            -10.3292158375       -5.1722875702       39.4053554704  TIP3      2914            0.0000000000
     27458      3074  TIP3      H2             -9.7794107168       -4.9184812062       38.0417108351  TIP3      2914            0.0000000000
     27459      3075  TIP3      OH2            -4.9976967396       -3.3589200195       38.8514125463  TIP3      2915            0.0000000000
     27460      3075  TIP3      H1             -5.1258998759       -3.5470930224       39.8025786185  TIP3      2915            0.0000000000
     27461      3075  TIP3      H2             -5.0122571812       -4.2800570525       38.4898089984  TIP3      2915            0.0000000000
     27462      3076  TIP3      OH2            -9.6814449103       -6.5973583601       40.7551892407  TIP3      2916            0.0000000000
     27463      3076  TIP3      H1            -10.3673183375       -7.1594598421       41.1512056018  TIP3      2916            0.0000000000
     27464      3076  TIP3      H2             -9.1117435257       -7.2310183088       40.2672471867  TIP3      2916            0.0000000000
     27465      3077  TIP3      OH2            -8.3085349961       -8.4170730068       39.2562799909  TIP3      2917            0.0000000000
     27466      3077  TIP3      H1             -8.4044036172       -8.0426092202       38.3449760556  TIP3      2917            0.0000000000
     27467      3077  TIP3      H2             -7.3525378102       -8.2640288115       39.4259956829  TIP3      2917            0.0000000000
     27468      3078  TIP3      OH2             0.4357283426       -5.8036734711       39.2821176555  TIP3      2918            0.0000000000
     27469      3078  TIP3      H1              0.9629314462       -6.4742420580       38.8034563019  TIP3      2918            0.0000000000
     27470      3078  TIP3      H2              0.4731010277       -4.9959469107       38.7190301936  TIP3      2918            0.0000000000
     27471      3079  TIP3      OH2            -8.3674331161        2.1363555020       41.3901020269  TIP3      2919            0.0000000000
     27472      3079  TIP3      H1             -7.3933518078        2.0596116249       41.3974846085  TIP3      2919            0.0000000000
     27473      3079  TIP3      H2             -8.4901276058        2.6474244592       40.5623172870  TIP3      2919            0.0000000000
     27474      3080  TIP3      OH2           -15.3214356371       -3.1281172672       40.4515847179  TIP3      2920            0.0000000000
     27475      3080  TIP3      H1            -14.3744000590       -2.8739268400       40.3765244746  TIP3      2920            0.0000000000
     27476      3080  TIP3      H2            -15.2517310905       -4.0777969511       40.6442807919  TIP3      2920            0.0000000000
     27477      3081  TIP3      OH2             2.3409511983       -7.1435467939       41.5062267938  TIP3      2921            0.0000000000
     27478      3081  TIP3      H1              2.0602148844       -7.2830981385       40.5688782892  TIP3      2921            0.0000000000
     27479      3081  TIP3      H2              3.0228409857       -6.4724073592       41.4286301098  TIP3      2921            0.0000000000
     27480      3082  TIP3      OH2             0.5030139143      -10.5404439015       39.5936418576  TIP3      2922            0.0000000000
     27481      3082  TIP3      H1              1.0736101777       -9.8275625225       39.2229214676  TIP3      2922            0.0000000000
     27482      3082  TIP3      H2             -0.1130415962      -10.6847690209       38.8566001033  TIP3      2922            0.0000000000
     27483      3083  TIP3      OH2            -0.3175409925      -13.5828746978       39.2996122024  TIP3      2923            0.0000000000
     27484      3083  TIP3      H1              0.0293009016      -13.0521920481       40.0446199627  TIP3      2923            0.0000000000
     27485      3083  TIP3      H2             -0.9706233814      -12.9929552154       38.9085191740  TIP3      2923            0.0000000000
     27486      3084  TIP3      OH2             1.9572835098      -13.8932784081       41.1168449476  TIP3      2924            0.0000000000
     27487      3084  TIP3      H1              2.6425063718      -14.5916371760       41.1132621125  TIP3      2924            0.0000000000
     27488      3084  TIP3      H2              2.4963339804      -13.0983455385       41.3665076271  TIP3      2924            0.0000000000
     27489      3085  TIP3      OH2           -14.3318681993      -15.8139698868       41.3753720244  TIP3      2925            0.0000000000
     27490      3085  TIP3      H1            -14.1081806780      -15.0996950536       40.7423427872  TIP3      2925            0.0000000000
     27491      3085  TIP3      H2            -14.8682531145      -15.2954420394       41.9913905870  TIP3      2925            0.0000000000
     27492      3086  TIP3      OH2           -13.2393183868      -13.7329195480       39.6814902130  TIP3      2926            0.0000000000
     27493      3086  TIP3      H1            -12.5507500210      -14.2560778162       39.2199832744  TIP3      2926            0.0000000000
     27494      3086  TIP3      H2            -12.8152252818      -13.5889842667       40.5528937506  TIP3      2926            0.0000000000
     27495      3087  TIP3      OH2            -5.6953785960        1.3844721140       40.9968142021  TIP3      2927            0.0000000000
     27496      3087  TIP3      H1             -4.7145162277        1.4484949078       40.9390525941  TIP3      2927            0.0000000000
     27497      3087  TIP3      H2             -5.8368468841        0.9512477039       40.1224048879  TIP3      2927            0.0000000000
     27498      3088  TIP3      OH2           -13.7360629877        0.7503696140       39.3720895947  TIP3      2928            0.0000000000
     27499      3088  TIP3      H1            -13.8011068798        1.1831224744       40.2458475767  TIP3      2928            0.0000000000
     27500      3088  TIP3      H2            -12.8445708737        0.3432723035       39.4290823567  TIP3      2928            0.0000000000
     27501      3089  TIP3      OH2            12.9222040664       -8.2313979281       40.1914932050  TIP3      2929            0.0000000000
     27502      3089  TIP3      H1             13.7527553634       -7.9216935631       40.6152150546  TIP3      2929            0.0000000000
     27503      3089  TIP3      H2             13.1728477668       -9.1527398172       40.0176186187  TIP3      2929            0.0000000000
     27504      3090  TIP3      OH2            15.2057053878       -7.2843828758       41.3344899799  TIP3      2930            0.0000000000
     27505      3090  TIP3      H1             14.7911942415       -6.5260028004       41.7828535007  TIP3      2930            0.0000000000
     27506      3090  TIP3      H2             15.7811965370       -6.8694625574       40.6444021230  TIP3      2930            0.0000000000
     27507      3091  TIP3      OH2            19.1349230470      -15.8938687096       42.1025326432  TIP3      2931            0.0000000000
     27508      3091  TIP3      H1             18.3593070233      -15.5636975506       42.6188808548  TIP3      2931            0.0000000000
     27509      3091  TIP3      H2             19.5049809020      -15.0873720501       41.6776898947  TIP3      2931            0.0000000000
     27510      3092  TIP3      OH2            20.4748618104       -1.2269665215       39.9009062146  TIP3      2932            0.0000000000
     27511      3092  TIP3      H1             20.3064246322       -1.1429995998       40.8513646436  TIP3      2932            0.0000000000
     27512      3092  TIP3      H2             21.4428306252       -1.3486251197       39.9462063413  TIP3      2932            0.0000000000
     27513      3093  TIP3      OH2            16.0499402219        1.1369830975       40.8812210135  TIP3      2933            0.0000000000
     27514      3093  TIP3      H1             16.5361457165        0.4396439322       40.4003614547  TIP3      2933            0.0000000000
     27515      3093  TIP3      H2             16.1487902385        0.8354111601       41.7979805290  TIP3      2933            0.0000000000
     27516      3094  TIP3      OH2            17.0240936703       -6.1359061130       39.8472315932  TIP3      2934            0.0000000000
     27517      3094  TIP3      H1             16.9558694019       -6.2532593441       38.8736060386  TIP3      2934            0.0000000000
     27518      3094  TIP3      H2             17.9900753109       -6.2647076465       39.9599182562  TIP3      2934            0.0000000000
     27519      3095  TIP3      OH2            11.5064266338      -13.1460615358       41.4239516541  TIP3      2935            0.0000000000
     27520      3095  TIP3      H1             11.8999607638      -12.3198693880       41.0713673671  TIP3      2935            0.0000000000
     27521      3095  TIP3      H2             11.9510240845      -13.6926026824       40.7561952034  TIP3      2935            0.0000000000
     27522      3096  TIP3      OH2             8.8517835774      -12.4479473845       39.0556193971  TIP3      2936            0.0000000000
     27523      3096  TIP3      H1              8.4222554566      -12.6396244489       39.9087655441  TIP3      2936            0.0000000000
     27524      3096  TIP3      H2              8.4911051860      -11.5582793830       38.8594205103  TIP3      2936            0.0000000000
     27525      3097  TIP3      OH2             3.7645408699      -12.0990483366       41.5090608427  TIP3      2937            0.0000000000
     27526      3097  TIP3      H1              4.1639642562      -11.5993573820       40.7588520479  TIP3      2937            0.0000000000
     27527      3097  TIP3      H2              3.5803751834      -11.3473454441       42.1060249434  TIP3      2937            0.0000000000
     27528      3098  TIP3      OH2             7.9244761097      -10.0001815127       40.5574902328  TIP3      2938            0.0000000000
     27529      3098  TIP3      H1              7.4247953150      -10.0351491127       39.7178726201  TIP3      2938            0.0000000000
     27530      3098  TIP3      H2              8.7447966330       -9.5841996558       40.2505648388  TIP3      2938            0.0000000000
     27531      3099  TIP3      OH2            15.9615504821      -12.3550788545       40.9789815808  TIP3      2939            0.0000000000
     27532      3099  TIP3      H1             15.0866613092      -12.1866755403       40.5733179628  TIP3      2939            0.0000000000
     27533      3099  TIP3      H2             16.1270484849      -11.4876603572       41.4078180352  TIP3      2939            0.0000000000
     27534      3100  TIP3      OH2            16.1242919289       -9.9622106453       42.0865601957  TIP3      2940            0.0000000000
     27535      3100  TIP3      H1             16.9393725948       -9.7596720308       42.5800352351  TIP3      2940            0.0000000000
     27536      3100  TIP3      H2             15.9132896517       -9.1509026950       41.5964223507  TIP3      2940            0.0000000000
     27537      3101  TIP3      OH2            13.4033795960       -3.7164222620       41.5899548200  TIP3      2941            0.0000000000
     27538      3101  TIP3      H1             12.9342367562       -2.8621254871       41.5132030021  TIP3      2941            0.0000000000
     27539      3101  TIP3      H2             12.8621292956       -4.1629553777       42.2525318800  TIP3      2941            0.0000000000
     27540      3102  TIP3      OH2            21.1233572205      -10.1391584064       42.1471757810  TIP3      2942            0.0000000000
     27541      3102  TIP3      H1             20.8516712350      -10.9010987054       41.5832490314  TIP3      2942            0.0000000000
     27542      3102  TIP3      H2             21.3393855989       -9.4955381471       41.4382848067  TIP3      2942            0.0000000000
     27543      3103  TIP3      OH2             5.6578812577       -7.2576334068       40.0212046375  TIP3      2943            0.0000000000
     27544      3103  TIP3      H1              5.8443244562       -6.5353638565       40.6565728379  TIP3      2943            0.0000000000
     27545      3103  TIP3      H2              4.6942665222       -7.2503528896       39.9407428911  TIP3      2943            0.0000000000
     27546      3104  TIP3      OH2            16.9172799087       -3.0532464427       40.2272352411  TIP3      2944            0.0000000000
     27547      3104  TIP3      H1             16.4763273704       -3.0349378265       41.0912252334  TIP3      2944            0.0000000000
     27548      3104  TIP3      H2             16.3578543104       -3.7001448593       39.7488481945  TIP3      2944            0.0000000000
     27549      3105  TIP3      OH2            21.0194750970        1.3621673580       40.9313242855  TIP3      2945            0.0000000000
     27550      3105  TIP3      H1             21.7657850754        1.9820762436       40.9392202914  TIP3      2945            0.0000000000
     27551      3105  TIP3      H2             20.3281319496        1.9231613856       41.3530715253  TIP3      2945            0.0000000000
     27552      3106  TIP3      OH2            10.8500971500       -1.9195463630       38.6000166304  TIP3      2946            0.0000000000
     27553      3106  TIP3      H1             10.3976262714       -2.6276154571       38.1211696658  TIP3      2946            0.0000000000
     27554      3106  TIP3      H2             10.7681884004       -2.2502642697       39.5130152979  TIP3      2946            0.0000000000
     27555      3107  TIP3      OH2             9.3968049642       -2.7602471998       41.3443875202  TIP3      2947            0.0000000000
     27556      3107  TIP3      H1              9.6239872071       -3.3598575967       42.0665914980  TIP3      2947            0.0000000000
     27557      3107  TIP3      H2              9.4220362155       -1.8918397310       41.7926155235  TIP3      2947            0.0000000000
     27558      3108  TIP3      OH2             5.8017766123       -5.3882941496       41.9427695254  TIP3      2948            0.0000000000
     27559      3108  TIP3      H1              5.6979295988       -6.0534496958       42.6528559759  TIP3      2948            0.0000000000
     27560      3108  TIP3      H2              6.7089988708       -5.0650753841       42.1179007868  TIP3      2948            0.0000000000
     27561      3109  TIP3      OH2            11.9659642323       -1.2679159671       41.2820885465  TIP3      2949            0.0000000000
     27562      3109  TIP3      H1             11.0192140050       -1.0421043975       41.3826250800  TIP3      2949            0.0000000000
     27563      3109  TIP3      H2             12.3680723922       -0.3814163609       41.3560957631  TIP3      2949            0.0000000000
     27564      3110  TIP3      OH2             9.6600695126       -0.2103416770       42.2446914478  TIP3      2950            0.0000000000
     27565      3110  TIP3      H1              9.6063034233        0.4276838516       41.4980905378  TIP3      2950            0.0000000000
     27566      3110  TIP3      H2              9.1436333555        0.2889423485       42.8875493152  TIP3      2950            0.0000000000
     27567      3111  TIP3      OH2             7.9924202417      -13.4159609314       41.4766710514  TIP3      2951            0.0000000000
     27568      3111  TIP3      H1              8.2483679806      -12.6430829660       42.0109282842  TIP3      2951            0.0000000000
     27569      3111  TIP3      H2              8.8674064304      -13.7248803850       41.1816330036  TIP3      2951            0.0000000000
     27570      3112  TIP3      OH2             6.2847900535       -2.6731807265       40.2417448810  TIP3      2952            0.0000000000
     27571      3112  TIP3      H1              6.4920341827       -1.8138242136       40.6773510303  TIP3      2952            0.0000000000
     27572      3112  TIP3      H2              7.1497609748       -2.9188923263       39.8834306878  TIP3      2952            0.0000000000
     27573      3113  TIP3      OH2             4.4645255555       -9.9959873294       39.8320752212  TIP3      2953            0.0000000000
     27574      3113  TIP3      H1              5.0954255793       -9.3003614671       40.0750233734  TIP3      2953            0.0000000000
     27575      3113  TIP3      H2              3.7172165141       -9.4974606787       39.4196377096  TIP3      2953            0.0000000000
     27576      3114  TIP3      OH2            12.9820033663        0.0958306293       38.9061291077  TIP3      2954            0.0000000000
     27577      3114  TIP3      H1             12.5864088764       -0.8018081464       38.9330535123  TIP3      2954            0.0000000000
     27578      3114  TIP3      H2             13.8156311813       -0.0796153113       38.4221486776  TIP3      2954            0.0000000000
     27579      3115  TIP3      OH2            17.2081843725       -0.6958112184       38.9954828370  TIP3      2955            0.0000000000
     27580      3115  TIP3      H1             17.2169065381       -1.4745395486       39.6064020936  TIP3      2955            0.0000000000
     27581      3115  TIP3      H2             17.9757610584       -0.8836236030       38.4212042442  TIP3      2955            0.0000000000
     27582      3116  TIP3      OH2             8.2937716527       -4.8121501250       38.6523282288  TIP3      2956            0.0000000000
     27583      3116  TIP3      H1              8.6404224344       -4.9606318020       39.5461550160  TIP3      2956            0.0000000000
     27584      3116  TIP3      H2              9.0494063263       -5.0866231515       38.0918322282  TIP3      2956            0.0000000000
     27585      3117  TIP3      OH2            14.1322394531       -3.4715687640       38.9110565436  TIP3      2957            0.0000000000
     27586      3117  TIP3      H1             13.9217133169       -3.6135098284       39.8581291664  TIP3      2957            0.0000000000
     27587      3117  TIP3      H2             13.9237025338       -4.3575974715       38.5086678420  TIP3      2957            0.0000000000
     27588      3118  TIP3      OH2             9.2542857780       -6.5714575765       41.0718816233  TIP3      2958            0.0000000000
     27589      3118  TIP3      H1              8.6880234062       -7.3017542208       41.3656437177  TIP3      2958            0.0000000000
     27590      3118  TIP3      H2              9.5418081109       -6.9376796913       40.2092941939  TIP3      2958            0.0000000000
     27591      3119  TIP3      OH2            10.2803745458       -8.2388047098       39.1861329306  TIP3      2959            0.0000000000
     27592      3119  TIP3      H1             10.4591648469       -8.2400518619       38.2313324486  TIP3      2959            0.0000000000
     27593      3119  TIP3      H2             11.1941307781       -8.2740197830       39.5365981948  TIP3      2959            0.0000000000
     27594      3120  TIP3      OH2            19.5511067925       -6.2015193835       38.9381858752  TIP3      2960            0.0000000000
     27595      3120  TIP3      H1             19.3625099244       -6.5712825796       38.0503730717  TIP3      2960            0.0000000000
     27596      3120  TIP3      H2             19.4443665629       -5.2364476067       38.7521528446  TIP3      2960            0.0000000000
     27597      3121  TIP3      OH2            10.3520615549        2.2157247385       41.2494379377  TIP3      2961            0.0000000000
     27598      3121  TIP3      H1             11.3146866595        2.1196751819       41.0966190946  TIP3      2961            0.0000000000
     27599      3121  TIP3      H2             10.1373130584        2.8333036756       40.5254020434  TIP3      2961            0.0000000000
     27600      3122  TIP3      OH2             3.4827552390       -2.9974553792       40.4091599684  TIP3      2962            0.0000000000
     27601      3122  TIP3      H1              4.4645799579       -3.0666290449       40.3388263927  TIP3      2962            0.0000000000
     27602      3122  TIP3      H2              3.1939605074       -3.6300833934       39.7205970814  TIP3      2962            0.0000000000
     27603      3123  TIP3      OH2            21.1103675141       -7.9241579425       40.6677936491  TIP3      2963            0.0000000000
     27604      3123  TIP3      H1             20.6329517737       -8.3729245412       39.9377198311  TIP3      2963            0.0000000000
     27605      3123  TIP3      H2             20.3649498645       -7.4877653353       41.1246837167  TIP3      2963            0.0000000000
     27606      3124  TIP3      OH2            18.6473938669       -9.5291666389       39.6481805474  TIP3      2964            0.0000000000
     27607      3124  TIP3      H1             19.3281665742       -9.7259621165       38.9799030924  TIP3      2964            0.0000000000
     27608      3124  TIP3      H2             18.8492583717      -10.2109557226       40.3085225248  TIP3      2964            0.0000000000
     27609      3125  TIP3      OH2            18.7435278188      -12.9256396745       38.3479997857  TIP3      2965            0.0000000000
     27610      3125  TIP3      H1             18.8985756159      -12.7002940540       39.2798816654  TIP3      2965            0.0000000000
     27611      3125  TIP3      H2             17.8002127245      -13.2134646478       38.3564848410  TIP3      2965            0.0000000000
     27612      3126  TIP3      OH2            20.6214493556      -13.9270067733       40.5836506538  TIP3      2966            0.0000000000
     27613      3126  TIP3      H1             21.1695122416      -14.3963022770       39.9201893627  TIP3      2966            0.0000000000
     27614      3126  TIP3      H2             20.8085599461      -12.9955182891       40.3326135574  TIP3      2966            0.0000000000
     27615      3127  TIP3      OH2             4.2101870006      -15.5943948578       41.2141979877  TIP3      2967            0.0000000000
     27616      3127  TIP3      H1              4.5681942784      -14.7479410795       40.8766233804  TIP3      2967            0.0000000000
     27617      3127  TIP3      H2              4.4105663761      -15.5613978921       42.1708383466  TIP3      2967            0.0000000000
     27618      3128  TIP3      OH2             5.6747260791      -13.2494145228       39.7748531526  TIP3      2968            0.0000000000
     27619      3128  TIP3      H1              6.3543446248      -13.8274123786       39.3912877590  TIP3      2968            0.0000000000
     27620      3128  TIP3      H2              6.0121918698      -13.1212422041       40.6839131613  TIP3      2968            0.0000000000
     27621      3129  TIP3      OH2            13.0250437197        1.6784554732       41.0427239041  TIP3      2969            0.0000000000
     27622      3129  TIP3      H1             13.9847497568        1.7485905348       40.9438760450  TIP3      2969            0.0000000000
     27623      3129  TIP3      H2             12.8654132750        1.1558152804       40.2195854830  TIP3      2969            0.0000000000
     27624      3130  TIP3      OH2             6.3179456533        0.1623309628       40.6446397402  TIP3      2970            0.0000000000
     27625      3130  TIP3      H1              5.5029409516        0.6782389788       40.5212193506  TIP3      2970            0.0000000000
     27626      3130  TIP3      H2              6.8732095487        0.6329689903       40.0092677407  TIP3      2970            0.0000000000
     27627      3131  TIP3      OH2            31.1459733248       -9.6091267972       40.7514965692  TIP3      2971            0.0000000000
     27628      3131  TIP3      H1             31.1553875141       -9.0522546979       41.5497326721  TIP3      2971            0.0000000000
     27629      3131  TIP3      H2             31.9732225177       -9.3390836841       40.2998120542  TIP3      2971            0.0000000000
     27630      3132  TIP3      OH2            34.6669252637       -7.4299463753       42.3808299157  TIP3      2972            0.0000000000
     27631      3132  TIP3      H1             35.5685395631       -7.5316661409       42.0356155343  TIP3      2972            0.0000000000
     27632      3132  TIP3      H2             34.1515109902       -7.4985533852       41.5559461550  TIP3      2972            0.0000000000
     27633      3133  TIP3      OH2            34.2899647332        1.4552960600       40.9289647435  TIP3      2973            0.0000000000
     27634      3133  TIP3      H1             34.6670586532        0.9201720325       40.2111882187  TIP3      2973            0.0000000000
     27635      3133  TIP3      H2             34.8703503500        1.1612599404       41.6654237375  TIP3      2973            0.0000000000
     27636      3134  TIP3      OH2            31.6610560171      -13.9528166407       40.9554631899  TIP3      2974            0.0000000000
     27637      3134  TIP3      H1             31.3992393115      -13.6993230327       41.8560143464  TIP3      2974            0.0000000000
     27638      3134  TIP3      H2             31.3197922213      -14.8775941862       40.9445333286  TIP3      2974            0.0000000000
     27639      3135  TIP3      OH2            27.2357499996      -12.3411013517       39.1381977712  TIP3      2975            0.0000000000
     27640      3135  TIP3      H1             26.7959977190      -12.6845709250       39.9480901592  TIP3      2975            0.0000000000
     27641      3135  TIP3      H2             26.7064267629      -11.5461880965       38.9171001308  TIP3      2975            0.0000000000
     27642      3136  TIP3      OH2            22.6264849892      -12.4337492838       42.1686788348  TIP3      2976            0.0000000000
     27643      3136  TIP3      H1             22.8698985877      -11.9408437885       41.3628770846  TIP3      2976            0.0000000000
     27644      3136  TIP3      H2             22.0039346853      -11.8305741521       42.6022608791  TIP3      2976            0.0000000000
     27645      3137  TIP3      OH2            26.6628897165       -8.6195656819       40.4152319140  TIP3      2977            0.0000000000
     27646      3137  TIP3      H1             26.0934332719       -9.1811198645       39.8599353742  TIP3      2977            0.0000000000
     27647      3137  TIP3      H2             27.2255380650       -9.2885018113       40.8528919232  TIP3      2977            0.0000000000
     27648      3138  TIP3      OH2            33.7661106783      -12.0008086779       41.1502500629  TIP3      2978            0.0000000000
     27649      3138  TIP3      H1             32.9478927602      -12.4114102424       41.4674787199  TIP3      2978            0.0000000000
     27650      3138  TIP3      H2             33.4577552183      -11.1892617421       40.6974042216  TIP3      2978            0.0000000000
     27651      3139  TIP3      OH2           -35.0383209029      -10.1997855010      -42.1323849632  TIP3      2979            0.0000000000
     27652      3139  TIP3      H1            -34.6649269165      -10.9911817116      -42.5625029603  TIP3      2979            0.0000000000
     27653      3139  TIP3      H2            -35.2490991225       -9.6232141298      -42.8978596715  TIP3      2979            0.0000000000
     27654      3140  TIP3      OH2            32.3482357166       -3.6076070675       41.2715620056  TIP3      2980            0.0000000000
     27655      3140  TIP3      H1             32.0714283205       -2.6768915750       41.3976376428  TIP3      2980            0.0000000000
     27656      3140  TIP3      H2             31.6912729045       -4.0799793917       41.8264870753  TIP3      2980            0.0000000000
     27657      3141  TIP3      OH2            23.7375409430       -7.3776769041       40.0629538853  TIP3      2981            0.0000000000
     27658      3141  TIP3      H1             24.3151929316       -6.7866269549       40.5992001859  TIP3      2981            0.0000000000
     27659      3141  TIP3      H2             22.9673092074       -7.5734026286       40.6258994884  TIP3      2981            0.0000000000
     27660      3142  TIP3      OH2            29.4997038281       -2.5944080503       38.9980381957  TIP3      2982            0.0000000000
     27661      3142  TIP3      H1             29.9841050716       -3.4357530400       39.0106907573  TIP3      2982            0.0000000000
     27662      3142  TIP3      H2             28.8270079216       -2.7778881019       39.6989116035  TIP3      2982            0.0000000000
     27663      3143  TIP3      OH2            27.9434724060       -2.6575473294       41.1825164554  TIP3      2983            0.0000000000
     27664      3143  TIP3      H1             28.5745503295       -3.0879992717       41.8150962764  TIP3      2983            0.0000000000
     27665      3143  TIP3      H2             28.1249656717       -1.6992348150       41.3481679907  TIP3      2983            0.0000000000
     27666      3144  TIP3      OH2            24.2697118105       -5.3948845166       41.6737585459  TIP3      2984            0.0000000000
     27667      3144  TIP3      H1             24.0175537995       -6.1080447806       42.3034875701  TIP3      2984            0.0000000000
     27668      3144  TIP3      H2             25.1630135244       -5.1671316637       42.0347592927  TIP3      2984            0.0000000000
     27669      3145  TIP3      OH2            30.9877333297       -1.2250158608       41.2458439989  TIP3      2985            0.0000000000
     27670      3145  TIP3      H1             30.1880299999       -1.3547277724       41.7983033511  TIP3      2985            0.0000000000
     27671      3145  TIP3      H2             30.9721236954       -0.2458603003       41.0982117241  TIP3      2985            0.0000000000
     27672      3146  TIP3      OH2            28.5162631629       -0.1725108169       41.8735502704  TIP3      2986            0.0000000000
     27673      3146  TIP3      H1             28.6025943108        0.6445029170       41.3408685830  TIP3      2986            0.0000000000
     27674      3146  TIP3      H2             28.4948763585        0.1805919400       42.7727772347  TIP3      2986            0.0000000000
     27675      3147  TIP3      OH2            26.5089586627      -13.3221832567       41.4993142680  TIP3      2987            0.0000000000
     27676      3147  TIP3      H1             26.8854740770      -12.4394722198       41.7552833582  TIP3      2987            0.0000000000
     27677      3147  TIP3      H2             27.1030349108      -13.8696417828       42.0600412239  TIP3      2987            0.0000000000
     27678      3148  TIP3      OH2            25.3520362295       -2.7118904287       40.1433904342  TIP3      2988            0.0000000000
     27679      3148  TIP3      H1             26.1331253365       -2.2499761217       40.5045321441  TIP3      2988            0.0000000000
     27680      3148  TIP3      H2             25.7668256442       -3.5872172159       40.0881697757  TIP3      2988            0.0000000000
     27681      3149  TIP3      OH2            24.2593367225      -10.1588889693       39.7772725550  TIP3      2989            0.0000000000
     27682      3149  TIP3      H1             24.0019237532       -9.3108251553       40.1747863413  TIP3      2989            0.0000000000
     27683      3149  TIP3      H2             23.3885393758      -10.5214681973       39.5003706614  TIP3      2989            0.0000000000
     27684      3150  TIP3      OH2            31.1981499765       -0.2550605956       38.5391778710  TIP3      2990            0.0000000000
     27685      3150  TIP3      H1             30.9073482922       -1.0693868833       38.9825538904  TIP3      2990            0.0000000000
     27686      3150  TIP3      H2             32.0984498514       -0.4836548410       38.2114707657  TIP3      2990            0.0000000000
     27687      3151  TIP3      OH2            26.9817769718       -5.0018544658       38.8510750643  TIP3      2991            0.0000000000
     27688      3151  TIP3      H1             27.1713049818       -5.6084377036       39.6134023695  TIP3      2991            0.0000000000
     27689      3151  TIP3      H2             27.8303111971       -5.0712241033       38.3685799720  TIP3      2991            0.0000000000
     27690      3152  TIP3      OH2            32.6754114209       -3.4937731631       38.5326848104  TIP3      2992            0.0000000000
     27691      3152  TIP3      H1             32.5410601172       -3.5075073012       39.5141274432  TIP3      2992            0.0000000000
     27692      3152  TIP3      H2             32.7002417610       -4.4795630538       38.4030606666  TIP3      2992            0.0000000000
     27693      3153  TIP3      OH2            28.0014286832       -6.2579864093       41.0819776617  TIP3      2993            0.0000000000
     27694      3153  TIP3      H1             27.8125566039       -6.6578526408       41.9443305999  TIP3      2993            0.0000000000
     27695      3153  TIP3      H2             28.2291569659       -7.0665328243       40.5770166648  TIP3      2993            0.0000000000
     27696      3154  TIP3      OH2            29.3320868840       -8.1075998839       39.1765230924  TIP3      2994            0.0000000000
     27697      3154  TIP3      H1             29.1195145776       -8.0266965747       38.2267806195  TIP3      2994            0.0000000000
     27698      3154  TIP3      H2             30.2881796890       -7.9303386028       39.2081171154  TIP3      2994            0.0000000000
     27699      3155  TIP3      OH2            29.3464688959        2.2902416731       41.3427430517  TIP3      2995            0.0000000000
     27700      3155  TIP3      H1             30.2893517326        2.1236200441       41.0968834462  TIP3      2995            0.0000000000
     27701      3155  TIP3      H2             29.0259711670        2.6400029273       40.4806555038  TIP3      2995            0.0000000000
     27702      3156  TIP3      OH2            22.6550496793       -2.9370911879       40.2660274036  TIP3      2996            0.0000000000
     27703      3156  TIP3      H1             23.5800116925       -3.0711285596       40.5659556998  TIP3      2996            0.0000000000
     27704      3156  TIP3      H2             22.8771557747       -2.8307485281       39.3173730295  TIP3      2996            0.0000000000
     27705      3157  TIP3      OH2            22.9843850717      -15.8008759874       41.4681650383  TIP3      2997            0.0000000000
     27706      3157  TIP3      H1             23.5004197305      -15.3359066642       40.7739023498  TIP3      2997            0.0000000000
     27707      3157  TIP3      H2             22.4149222092      -15.0572005878       41.7282615525  TIP3      2997            0.0000000000
     27708      3158  TIP3      OH2            24.3795156855      -14.0473780009       39.8431336227  TIP3      2998            0.0000000000
     27709      3158  TIP3      H1             24.9332139269      -14.4567947909       39.1442761336  TIP3      2998            0.0000000000
     27710      3158  TIP3      H2             25.0159588077      -13.7825018727       40.5391478095  TIP3      2998            0.0000000000
     27711      3159  TIP3      OH2            31.6916684910        1.2686210093       40.7145897437  TIP3      2999            0.0000000000
     27712      3159  TIP3      H1             32.6181497307        1.6055343387       40.7358027861  TIP3      2999            0.0000000000
     27713      3159  TIP3      H2             31.6182757039        0.9804513149       39.7822398337  TIP3      2999            0.0000000000
     27714      3160  TIP3      OH2            24.2096036674        0.2393802288       39.0191452827  TIP3      3000            0.0000000000
     27715      3160  TIP3      H1             24.2536760495        1.1615890818       39.3705034959  TIP3      3000            0.0000000000
     27716      3160  TIP3      H2             25.1514037433        0.0068670794       39.0666418952  TIP3      3000            0.0000000000
     27717      3161  TIP3      OH2           -24.5365895970       10.6967357486       40.1811609407  TIP3      3001            0.0000000000
     27718      3161  TIP3      H1            -23.7049745453       11.0995316720       40.5110236103  TIP3      3001            0.0000000000
     27719      3161  TIP3      H2            -24.1664017183        9.9187697083       39.7435254203  TIP3      3001            0.0000000000
     27720      3162  TIP3      OH2           -22.1073578994       11.2769875138       41.3190247263  TIP3      3002            0.0000000000
     27721      3162  TIP3      H1            -21.6501850609       11.0276110586       42.1449712801  TIP3      3002            0.0000000000
     27722      3162  TIP3      H2            -21.3739756066       11.6782603498       40.7918769546  TIP3      3002            0.0000000000
     27723      3163  TIP3      OH2           -18.6020703208        2.9761375012       41.9653802571  TIP3      3003            0.0000000000
     27724      3163  TIP3      H1            -19.4199911611        3.1550386766       41.4782820386  TIP3      3003            0.0000000000
     27725      3163  TIP3      H2            -18.0224731380        3.7096292496       41.6623048417  TIP3      3003            0.0000000000
     27726      3164  TIP3      OH2           -17.3954044616       17.6298744675       39.8718975447  TIP3      3004            0.0000000000
     27727      3164  TIP3      H1            -17.2487645032       18.5719367071       40.0817669396  TIP3      3004            0.0000000000
     27728      3164  TIP3      H2            -16.4547835301       17.3464646258       39.9128181333  TIP3      3004            0.0000000000
     27729      3165  TIP3      OH2           -22.0049000902       19.8898880927       41.0701813991  TIP3      3005            0.0000000000
     27730      3165  TIP3      H1            -21.8470956840       19.1083637184       40.5058830770  TIP3      3005            0.0000000000
     27731      3165  TIP3      H2            -21.2038797258       19.8930142359       41.6457022761  TIP3      3005            0.0000000000
     27732      3166  TIP3      OH2           -20.5961676165       12.6038381264       39.7256982383  TIP3      3006            0.0000000000
     27733      3166  TIP3      H1            -20.8599057295       12.6214339942       38.7817505259  TIP3      3006            0.0000000000
     27734      3166  TIP3      H2            -19.6194179987       12.5901593416       39.6459277388  TIP3      3006            0.0000000000
     27735      3167  TIP3      OH2           -25.3597886688        6.3741757202       39.6174761190  TIP3      3007            0.0000000000
     27736      3167  TIP3      H1            -25.0511661330        6.3912452567       40.5477307690  TIP3      3007            0.0000000000
     27737      3167  TIP3      H2            -25.3996345712        5.4227275328       39.4525406560  TIP3      3007            0.0000000000
     27738      3168  TIP3      OH2           -28.7913622784        6.4376687009       39.0092381123  TIP3      3008            0.0000000000
     27739      3168  TIP3      H1            -29.0615465572        6.0174152387       39.8646387731  TIP3      3008            0.0000000000
     27740      3168  TIP3      H2            -29.5709539193        6.9719591600       38.7726314008  TIP3      3008            0.0000000000
     27741      3169  TIP3      OH2           -34.0051397504        6.6719795306       41.9250877487  TIP3      3009            0.0000000000
     27742      3169  TIP3      H1            -33.5068577822        6.5170975656       41.1064028956  TIP3      3009            0.0000000000
     27743      3169  TIP3      H2            -34.9089656728        6.6665150174       41.5478571814  TIP3      3009            0.0000000000
     27744      3170  TIP3      OH2           -30.1016582889        9.1485620926       40.8257359237  TIP3      3010            0.0000000000
     27745      3170  TIP3      H1            -30.4469868296        8.9502553455       39.9340198520  TIP3      3010            0.0000000000
     27746      3170  TIP3      H2            -29.3760678988        9.7418966458       40.5856252325  TIP3      3010            0.0000000000
     27747      3171  TIP3      OH2           -21.9668588070        6.9650202633       39.9340523559  TIP3      3011            0.0000000000
     27748      3171  TIP3      H1            -22.7984200161        6.6705077143       40.3724566108  TIP3      3011            0.0000000000
     27749      3171  TIP3      H2            -21.6219497821        7.3576374412       40.7603391490  TIP3      3011            0.0000000000
     27750      3172  TIP3      OH2           -21.1346336002        8.9964577707       42.3924880527  TIP3      3012            0.0000000000
     27751      3172  TIP3      H1            -20.2236697144        9.3009161085       42.5331298925  TIP3      3012            0.0000000000
     27752      3172  TIP3      H2            -21.3410647763        9.3046716203       41.4911879308  TIP3      3012            0.0000000000
     27753      3173  TIP3      OH2           -24.7957343977       15.0644572178       41.0380353316  TIP3      3013            0.0000000000
     27754      3173  TIP3      H1            -25.1861522517       15.9087531693       41.3509647486  TIP3      3013            0.0000000000
     27755      3173  TIP3      H2            -24.6549471586       14.5996040180       41.8724400367  TIP3      3013            0.0000000000
     27756      3174  TIP3      OH2           -16.6123943462        8.9041289384       41.8093106173  TIP3      3014            0.0000000000
     27757      3174  TIP3      H1            -17.2910861682        8.5942658306       41.1720940398  TIP3      3014            0.0000000000
     27758      3174  TIP3      H2            -16.2796714692        9.6977189070       41.3317683024  TIP3      3014            0.0000000000
     27759      3175  TIP3      OH2           -32.7496541032       11.6462032807       39.7961570663  TIP3      3015            0.0000000000
     27760      3175  TIP3      H1            -32.2842229580       12.2911275314       40.3953637123  TIP3      3015            0.0000000000
     27761      3175  TIP3      H2            -33.6438264024       11.6950100032       40.1828232567  TIP3      3015            0.0000000000
     27762      3176  TIP3      OH2           -20.9709917879       15.7606846095       40.2917720632  TIP3      3016            0.0000000000
     27763      3176  TIP3      H1            -20.8426651985       16.3587476461       41.0653116157  TIP3      3016            0.0000000000
     27764      3176  TIP3      H2            -21.8420480029       15.3861377168       40.4863418792  TIP3      3016            0.0000000000
     27765      3177  TIP3      OH2           -16.2039854707       19.9872347912       40.1957097669  TIP3      3017            0.0000000000
     27766      3177  TIP3      H1            -15.4794057078       20.6325816568       40.2898740489  TIP3      3017            0.0000000000
     27767      3177  TIP3      H2            -16.9365900948       20.6084111126       40.3394666278  TIP3      3017            0.0000000000
     27768      3178  TIP3      OH2           -26.9662851098       16.8095300006       38.6846247850  TIP3      3018            0.0000000000
     27769      3178  TIP3      H1            -27.4423004552       16.3223130372       37.9959758135  TIP3      3018            0.0000000000
     27770      3178  TIP3      H2            -27.3157855162       16.3969917693       39.5037790279  TIP3      3018            0.0000000000
     27771      3179  TIP3      OH2           -28.1599771453       16.0065626830       41.3141867336  TIP3      3019            0.0000000000
     27772      3179  TIP3      H1            -28.1937578977       15.6583486401       42.2100131238  TIP3      3019            0.0000000000
     27773      3179  TIP3      H2            -28.2920284964       16.9624411159       41.5003552471  TIP3      3019            0.0000000000
     27774      3180  TIP3      OH2           -32.1233670287       13.5827168167       41.4554316053  TIP3      3020            0.0000000000
     27775      3180  TIP3      H1            -32.8817275841       14.1352340263       41.7053402335  TIP3      3020            0.0000000000
     27776      3180  TIP3      H2            -31.3733453989       14.0861758135       41.7832256212  TIP3      3020            0.0000000000
     27777      3181  TIP3      OH2           -25.7973618764       17.8383796568       41.4984421912  TIP3      3021            0.0000000000
     27778      3181  TIP3      H1            -26.6722188945       18.1846969193       41.7469368243  TIP3      3021            0.0000000000
     27779      3181  TIP3      H2            -25.3567504219       18.6430348460       41.1703261806  TIP3      3021            0.0000000000
     27780      3182  TIP3      OH2           -28.4978457560       18.5458785542       42.1038851255  TIP3      3022            0.0000000000
     27781      3182  TIP3      H1            -28.2206248239       19.2738497802       41.5039562124  TIP3      3022            0.0000000000
     27782      3182  TIP3      H2            -28.9757581154       19.0892566357       42.7382390367  TIP3      3022            0.0000000000
     27783      3183  TIP3      OH2           -29.4858620395        5.3672658793       41.4287052944  TIP3      3023            0.0000000000
     27784      3183  TIP3      H1            -30.0503856993        5.8268431453       42.0650762896  TIP3      3023            0.0000000000
     27785      3183  TIP3      H2            -28.6182612105        5.6468729177       41.7849774556  TIP3      3023            0.0000000000
     27786      3184  TIP3      OH2           -30.8120260583       15.9165414244       40.1810079978  TIP3      3024            0.0000000000
     27787      3184  TIP3      H1            -30.1803629386       16.0136323529       40.9178006437  TIP3      3024            0.0000000000
     27788      3184  TIP3      H2            -30.2291555882       15.4249053222       39.5685524678  TIP3      3024            0.0000000000
     27789      3185  TIP3      OH2           -33.4305899997        8.9880731861       40.2354868696  TIP3      3025            0.0000000000
     27790      3185  TIP3      H1            -32.8395409588        9.7299975729       40.0038180931  TIP3      3025            0.0000000000
     27791      3185  TIP3      H2            -33.3100889352        8.4011556162       39.4743788137  TIP3      3025            0.0000000000
     27792      3186  TIP3      OH2           -25.0297426125       18.6913702702       38.7081140974  TIP3      3026            0.0000000000
     27793      3186  TIP3      H1            -25.6484886622       17.9317825669       38.8294672087  TIP3      3026            0.0000000000
     27794      3186  TIP3      H2            -24.3071276537       18.2014829508       38.2531238470  TIP3      3026            0.0000000000
     27795      3187  TIP3      OH2           -20.5337016176       18.2816937276       38.9286466906  TIP3      3027            0.0000000000
     27796      3187  TIP3      H1            -20.2038157660       17.7982438385       39.7087347709  TIP3      3027            0.0000000000
     27797      3187  TIP3      H2            -19.7161611010       18.3505805275       38.3901641296  TIP3      3027            0.0000000000
     27798      3188  TIP3      OH2           -29.3192862746       13.9629939179       38.6162433904  TIP3      3028            0.0000000000
     27799      3188  TIP3      H1            -29.0401531170       13.5963841221       39.4839356236  TIP3      3028            0.0000000000
     27800      3188  TIP3      H2            -28.4728046185       13.8850401896       38.1290184597  TIP3      3028            0.0000000000
     27801      3189  TIP3      OH2           -24.0093059342       15.3379816346       38.3889180974  TIP3      3029            0.0000000000
     27802      3189  TIP3      H1            -24.3554170667       15.4278718701       39.3003659410  TIP3      3029            0.0000000000
     27803      3189  TIP3      H2            -24.1119957214       14.3669212824       38.2980447606  TIP3      3029            0.0000000000
     27804      3190  TIP3      OH2           -28.5677355322       12.2800764381       40.7780147656  TIP3      3030            0.0000000000
     27805      3190  TIP3      H1            -28.7463997680       12.0045406459       41.6905891594  TIP3      3030            0.0000000000
     27806      3190  TIP3      H2            -28.2300643359       11.4578697971       40.3700105881  TIP3      3030            0.0000000000
     27807      3191  TIP3      OH2           -27.5475900049        9.9173046381       39.5253979337  TIP3      3031            0.0000000000
     27808      3191  TIP3      H1            -28.0300212361        9.6871271968       38.7084448408  TIP3      3031            0.0000000000
     27809      3191  TIP3      H2            -27.0047409684        9.1191501807       39.6521665420  TIP3      3031            0.0000000000
     27810      3192  TIP3      OH2           -17.9170214524       12.7524833182       39.0962761164  TIP3      3032            0.0000000000
     27811      3192  TIP3      H1            -17.2665888715       12.4635454665       38.4225547146  TIP3      3032            0.0000000000
     27812      3192  TIP3      H2            -17.6737417271       13.6968753559       39.2460186047  TIP3      3032            0.0000000000
     27813      3193  TIP3      OH2           -27.2501246883       20.8680364959       41.3599494266  TIP3      3033            0.0000000000
     27814      3193  TIP3      H1            -26.2907937791       20.6887160571       41.2227944978  TIP3      3033            0.0000000000
     27815      3193  TIP3      H2            -27.3300354863       21.6223999907       40.7638459579  TIP3      3033            0.0000000000
     27816      3194  TIP3      OH2           -33.6653636490       15.8417439136       40.6380065579  TIP3      3034            0.0000000000
     27817      3194  TIP3      H1            -32.7046564548       15.7409671257       40.4915445582  TIP3      3034            0.0000000000
     27818      3194  TIP3      H2            -34.0098868185       15.3319829256       39.8716106930  TIP3      3034            0.0000000000
     27819      3195  TIP3      OH2           -16.4035543671       11.5596187708       41.0092875609  TIP3      3035            0.0000000000
     27820      3195  TIP3      H1            -17.0230156811       11.9892181248       40.3807201144  TIP3      3035            0.0000000000
     27821      3195  TIP3      H2            -16.5176252088       12.1494429297       41.7800174583  TIP3      3035            0.0000000000
     27822      3196  TIP3      OH2           -18.8069022169        8.8280120422       39.9480929117  TIP3      3036            0.0000000000
     27823      3196  TIP3      H1            -18.1206074974        9.2694545907       39.3918589857  TIP3      3036            0.0000000000
     27824      3196  TIP3      H2            -19.0185350395        8.0688345059       39.3741991178  TIP3      3036            0.0000000000
     27825      3197  TIP3      OH2           -19.0295456371        6.2407253767       38.8295511021  TIP3      3037            0.0000000000
     27826      3197  TIP3      H1            -18.7366036620        5.9573074671       39.7150508566  TIP3      3037            0.0000000000
     27827      3197  TIP3      H2            -19.9890084536        6.1443172223       38.9337781528  TIP3      3037            0.0000000000
     27828      3198  TIP3      OH2           -17.2018505806        4.7983004257       40.6961368692  TIP3      3038            0.0000000000
     27829      3198  TIP3      H1            -17.0346641952        4.2251796323       39.9115411846  TIP3      3038            0.0000000000
     27830      3198  TIP3      H2            -16.3156226761        5.1776203246       40.8859920110  TIP3      3038            0.0000000000
     27831      3199  TIP3      OH2           -32.9488411381        3.4886648165       42.1754970967  TIP3      3039            0.0000000000
     27832      3199  TIP3      H1            -33.2081538351        4.1866395635       41.5581094116  TIP3      3039            0.0000000000
     27833      3199  TIP3      H2            -33.5807958008        2.7525587928       42.0408256044  TIP3      3039            0.0000000000
     27834      3200  TIP3      OH2           -31.7544043329        5.3442564035       39.9809140001  TIP3      3040            0.0000000000
     27835      3200  TIP3      H1            -31.6112363016        4.5826678380       39.3753054568  TIP3      3040            0.0000000000
     27836      3200  TIP3      H2            -30.9567951912        5.2220717740       40.5388241481  TIP3      3040            0.0000000000
     27837      3201  TIP3      OH2           -24.6730286826       20.4711292463       40.6811858229  TIP3      3041            0.0000000000
     27838      3201  TIP3      H1            -23.6991888287       20.4179422409       40.7765313003  TIP3      3041            0.0000000000
     27839      3201  TIP3      H2            -24.7856641258       19.9593393771       39.8472840645  TIP3      3041            0.0000000000
     27840      3202  TIP3      OH2           -31.4439034451       20.1877152215       39.3352528047  TIP3      3042            0.0000000000
     27841      3202  TIP3      H1            -31.8529746936       20.7361585237       40.0299927022  TIP3      3042            0.0000000000
     27842      3202  TIP3      H2            -30.7610378946       19.6920042600       39.8244112852  TIP3      3042            0.0000000000
     27843      3203  TIP3      OH2            -5.2311265463       10.4202776956       39.9329730595  TIP3      3043            0.0000000000
     27844      3203  TIP3      H1             -4.5778325356       10.7140710998       40.6126952529  TIP3      3043            0.0000000000
     27845      3203  TIP3      H2             -4.8170986755        9.5665295896       39.7157309324  TIP3      3043            0.0000000000
     27846      3204  TIP3      OH2            -3.3334901833       11.3621144557       41.3720805553  TIP3      3044            0.0000000000
     27847      3204  TIP3      H1             -3.5959235845       11.8737676858       42.1554141837  TIP3      3044            0.0000000000
     27848      3204  TIP3      H2             -2.6782474197       11.9438320099       40.9143125879  TIP3      3044            0.0000000000
     27849      3205  TIP3      OH2            -0.5040726868        2.4014925159       41.2050737784  TIP3      3045            0.0000000000
     27850      3205  TIP3      H1             -0.9850405209        2.6326393858       42.0062341749  TIP3      3045            0.0000000000
     27851      3205  TIP3      H2              0.2636868907        3.0004648778       41.2678712958  TIP3      3045            0.0000000000
     27852      3206  TIP3      OH2             1.7571517778       17.4609432748       40.3753296752  TIP3      3046            0.0000000000
     27853      3206  TIP3      H1              1.9330455119       18.2326747790       39.7921780770  TIP3      3046            0.0000000000
     27854      3206  TIP3      H2              2.6730450427       17.1134261617       40.4498732548  TIP3      3046            0.0000000000
     27855      3207  TIP3      OH2            -2.9437817536       19.9434346507       40.0771913093  TIP3      3047            0.0000000000
     27856      3207  TIP3      H1             -2.3657844777       19.2803092117       39.6364156386  TIP3      3047            0.0000000000
     27857      3207  TIP3      H2             -3.6916066015       19.4040213584       40.3851281568  TIP3      3047            0.0000000000
     27858      3208  TIP3      OH2            -1.5656060181       12.7249777231       39.9467126300  TIP3      3048            0.0000000000
     27859      3208  TIP3      H1             -1.9707901137       12.8313600128       39.0626550091  TIP3      3048            0.0000000000
     27860      3208  TIP3      H2             -0.6334808072       12.6004711628       39.7032150493  TIP3      3048            0.0000000000
     27861      3209  TIP3      OH2            -6.1487633161        6.3244462171       40.1372618053  TIP3      3049            0.0000000000
     27862      3209  TIP3      H1             -6.6526671895        6.7836424176       40.8160763857  TIP3      3049            0.0000000000
     27863      3209  TIP3      H2             -6.5064632228        5.4237441553       40.1250244927  TIP3      3049            0.0000000000
     27864      3210  TIP3      OH2            -9.6351237588        6.2912815438       39.1352463907  TIP3      3050            0.0000000000
     27865      3210  TIP3      H1            -10.1201870299        6.0746953266       39.9706236943  TIP3      3050            0.0000000000
     27866      3210  TIP3      H2            -10.2840789442        6.8143008513       38.6278028828  TIP3      3050            0.0000000000
     27867      3211  TIP3      OH2           -15.2371647374        6.3181319604       41.7369588942  TIP3      3051            0.0000000000
     27868      3211  TIP3      H1            -14.3804866529        6.7185327239       41.4963270747  TIP3      3051            0.0000000000
     27869      3211  TIP3      H2            -15.7593700820        7.1408675638       41.8308010728  TIP3      3051            0.0000000000
     27870      3212  TIP3      OH2           -10.5499573373        9.2643645916       40.8310138862  TIP3      3052            0.0000000000
     27871      3212  TIP3      H1            -11.3506196700        8.8106997345       40.5190944255  TIP3      3052            0.0000000000
     27872      3212  TIP3      H2             -9.8466972145        8.8467387526       40.3110121293  TIP3      3052            0.0000000000
     27873      3213  TIP3      OH2            -3.4046497155        6.5385443142       40.8411952555  TIP3      3053            0.0000000000
     27874      3213  TIP3      H1             -4.3530521427        6.4296647346       41.0175499917  TIP3      3053            0.0000000000
     27875      3213  TIP3      H2             -3.2141172479        7.3875649007       41.3102592190  TIP3      3053            0.0000000000
     27876      3214  TIP3      OH2            -2.6915443406        8.7725714474       42.0715983684  TIP3      3054            0.0000000000
     27877      3214  TIP3      H1             -1.8155663828        8.5612572365       42.4488025774  TIP3      3054            0.0000000000
     27878      3214  TIP3      H2             -2.5131370599        9.5248101263       41.4809638318  TIP3      3054            0.0000000000
     27879      3215  TIP3      OH2            -5.7764498438       14.8421126474       41.5812510233  TIP3      3055            0.0000000000
     27880      3215  TIP3      H1             -5.8216945110       15.8078035569       41.6210221215  TIP3      3055            0.0000000000
     27881      3215  TIP3      H2             -5.7254252908       14.5912385549       42.5211578383  TIP3      3055            0.0000000000
     27882      3216  TIP3      OH2             1.9927932752        9.0637791708       41.9075656091  TIP3      3056            0.0000000000
     27883      3216  TIP3      H1              1.4155428211        8.6682234044       41.2164476280  TIP3      3056            0.0000000000
     27884      3216  TIP3      H2              2.1320246025        9.9531045259       41.5309342125  TIP3      3056            0.0000000000
     27885      3217  TIP3      OH2           -13.9236844636       11.4788255631       39.9471274691  TIP3      3057            0.0000000000
     27886      3217  TIP3      H1            -13.5720834705       12.3060308830       40.3592475250  TIP3      3057            0.0000000000
     27887      3217  TIP3      H2            -14.8798453163       11.5517074898       40.1755286018  TIP3      3057            0.0000000000
     27888      3218  TIP3      OH2            -1.9619684042       15.5601962498       40.4612733717  TIP3      3058            0.0000000000
     27889      3218  TIP3      H1             -2.3933243618       15.4145819041       41.3162069211  TIP3      3058            0.0000000000
     27890      3218  TIP3      H2             -2.5988301395       15.1177583777       39.8691852414  TIP3      3058            0.0000000000
     27891      3219  TIP3      OH2             2.3972349813       20.5057700037       41.5770014469  TIP3      3059            0.0000000000
     27892      3219  TIP3      H1              3.2325578847       20.9791111062       41.4187551815  TIP3      3059            0.0000000000
     27893      3219  TIP3      H2              2.1417181830       20.2623025412       40.6695305066  TIP3      3059            0.0000000000
     27894      3220  TIP3      OH2            -8.1807919341       16.8360228231       38.6972311580  TIP3      3060            0.0000000000
     27895      3220  TIP3      H1             -8.2906193927       16.0596893884       38.1319692803  TIP3      3060            0.0000000000
     27896      3220  TIP3      H2             -8.7025636352       16.5996783710       39.4779210548  TIP3      3060            0.0000000000
     27897      3221  TIP3      OH2            -9.1616952257       15.8390574343       41.4845029158  TIP3      3061            0.0000000000
     27898      3221  TIP3      H1             -9.1644188475       15.6257501063       42.4337416471  TIP3      3061            0.0000000000
     27899      3221  TIP3      H2             -9.1134482349       16.8050888200       41.6420523205  TIP3      3061            0.0000000000
     27900      3222  TIP3      OH2           -12.8868264572       13.4685862779       41.3984830247  TIP3      3062            0.0000000000
     27901      3222  TIP3      H1            -13.4030903803       13.0522491450       42.1162244120  TIP3      3062            0.0000000000
     27902      3222  TIP3      H2            -12.0538148492       13.6670474829       41.8766063170  TIP3      3062            0.0000000000
     27903      3223  TIP3      OH2            -6.8555949701       17.8293885526       41.0180767074  TIP3      3063            0.0000000000
     27904      3223  TIP3      H1             -7.7506244966       18.1755718461       41.2211202954  TIP3      3063            0.0000000000
     27905      3223  TIP3      H2             -6.3175081844       18.2281495078       41.7435468656  TIP3      3063            0.0000000000
     27906      3224  TIP3      OH2            -9.1843777382       18.6262272911       41.9656391846  TIP3      3064            0.0000000000
     27907      3224  TIP3      H1             -9.1656052035       19.3863310195       41.3278789276  TIP3      3064            0.0000000000
     27908      3224  TIP3      H2             -9.4294186021       19.1049549238       42.7826499557  TIP3      3064            0.0000000000
     27909      3225  TIP3      OH2           -10.7067829142        5.3117693015       41.4289111615  TIP3      3065            0.0000000000
     27910      3225  TIP3      H1            -10.1139835771        5.6874662601       42.1239296121  TIP3      3065            0.0000000000
     27911      3225  TIP3      H2            -10.4575504407        4.3733044335       41.4809483240  TIP3      3065            0.0000000000
     27912      3226  TIP3      OH2           -12.0682408846       16.4555671770       40.5270814624  TIP3      3066            0.0000000000
     27913      3226  TIP3      H1            -12.0735433744       16.4287946490       41.5062401118  TIP3      3066            0.0000000000
     27914      3226  TIP3      H2            -11.4219863235       15.7452895401       40.3537646662  TIP3      3066            0.0000000000
     27915      3227  TIP3      OH2           -13.7807534124        8.6646521471       40.4529460444  TIP3      3067            0.0000000000
     27916      3227  TIP3      H1            -13.8360971008        9.6248069578       40.6187280588  TIP3      3067            0.0000000000
     27917      3227  TIP3      H2            -14.4977041098        8.5311537106       39.8156213706  TIP3      3067            0.0000000000
     27918      3228  TIP3      OH2            -5.9543003285       19.1519074044       38.8946127272  TIP3      3068            0.0000000000
     27919      3228  TIP3      H1             -6.3795829632       18.5065219474       39.5053475417  TIP3      3068            0.0000000000
     27920      3228  TIP3      H2             -5.3426049985       18.5450361874       38.4345844488  TIP3      3068            0.0000000000
     27921      3229  TIP3      OH2            -1.2848510054       18.0070770796       38.8426886530  TIP3      3069            0.0000000000
     27922      3229  TIP3      H1             -1.3213848948       17.2625158475       39.4694001312  TIP3      3069            0.0000000000
     27923      3229  TIP3      H2             -0.3204683920       18.0322981662       38.6889984779  TIP3      3069            0.0000000000
     27924      3230  TIP3      OH2           -10.5223615865       13.8383238835       39.0954757774  TIP3      3070            0.0000000000
     27925      3230  TIP3      H1            -11.4958626309       13.7874041726       39.0578129542  TIP3      3070            0.0000000000
     27926      3230  TIP3      H2            -10.2765992186       13.8620713800       38.1487397737  TIP3      3070            0.0000000000
     27927      3231  TIP3      OH2            -5.0284397612       15.4092560397       38.6667012230  TIP3      3071            0.0000000000
     27928      3231  TIP3      H1             -5.1946859125       15.2212763280       39.6031646769  TIP3      3071            0.0000000000
     27929      3231  TIP3      H2             -4.9909028929       14.4747883837       38.3134161019  TIP3      3071            0.0000000000
     27930      3232  TIP3      OH2            -9.0963609773       11.7154086802       41.5373445467  TIP3      3072            0.0000000000
     27931      3232  TIP3      H1            -10.0619010132       11.6936868854       41.6800447269  TIP3      3072            0.0000000000
     27932      3232  TIP3      H2             -8.9624846675       10.8205967307       41.1401500787  TIP3      3072            0.0000000000
     27933      3233  TIP3      OH2            -7.8580074059       10.2804259095       39.4150300742  TIP3      3073            0.0000000000
     27934      3233  TIP3      H1             -7.7481071638       10.7202164755       38.5611411570  TIP3      3073            0.0000000000
     27935      3233  TIP3      H2             -6.9086703938       10.1817104996       39.6779510510  TIP3      3073            0.0000000000
     27936      3234  TIP3      OH2             1.1048562509       13.0508208974       39.4271614932  TIP3      3074            0.0000000000
     27937      3234  TIP3      H1              0.7860448186       12.6892666495       38.5651714518  TIP3      3074            0.0000000000
     27938      3234  TIP3      H2              1.1346209827       14.0154807748       39.1802161838  TIP3      3074            0.0000000000
     27939      3235  TIP3      OH2            -8.4213297333       20.9121115929       40.7451171313  TIP3      3075            0.0000000000
     27940      3235  TIP3      H1             -7.4475608221       20.8194669157       40.7812648008  TIP3      3075            0.0000000000
     27941      3235  TIP3      H2             -8.4439053265       21.8908787866       40.6585287720  TIP3      3075            0.0000000000
     27942      3236  TIP3      OH2           -14.8217280511       16.6512007411       39.7655811653  TIP3      3076            0.0000000000
     27943      3236  TIP3      H1            -13.8968907146       16.6486845937       40.0858322301  TIP3      3076            0.0000000000
     27944      3236  TIP3      H2            -14.8262132401       15.7398522875       39.3907969464  TIP3      3076            0.0000000000
     27945      3237  TIP3      OH2             2.5142680217       11.6106005371       41.1187227000  TIP3      3077            0.0000000000
     27946      3237  TIP3      H1              2.1145673476       12.1157888563       40.3678266409  TIP3      3077            0.0000000000
     27947      3237  TIP3      H2              2.7578175179       12.3427791044       41.7101202990  TIP3      3077            0.0000000000
     27948      3238  TIP3      OH2             0.3110534980        9.0316925945       39.6871795356  TIP3      3078            0.0000000000
     27949      3238  TIP3      H1              0.7865605786        9.3606989144       38.8888470422  TIP3      3078            0.0000000000
     27950      3238  TIP3      H2             -0.0153396481        8.1563768003       39.3753422544  TIP3      3078            0.0000000000
     27951      3239  TIP3      OH2            -0.4220680975        6.4381348642       39.0733175628  TIP3      3079            0.0000000000
     27952      3239  TIP3      H1              0.3774301778        5.9637641528       39.3757689080  TIP3      3079            0.0000000000
     27953      3239  TIP3      H2             -1.0794969621        5.7357757659       39.0181317830  TIP3      3079            0.0000000000
     27954      3240  TIP3      OH2             2.2223458566        5.0900370935       39.4113191250  TIP3      3080            0.0000000000
     27955      3240  TIP3      H1              2.3838910098        4.3079915457       39.9712479424  TIP3      3080            0.0000000000
     27956      3240  TIP3      H2              2.6644455378        5.7564955573       39.9722904378  TIP3      3080            0.0000000000
     27957      3241  TIP3      OH2           -14.4132748182        3.3308584806       41.2887123929  TIP3      3081            0.0000000000
     27958      3241  TIP3      H1            -13.6025103082        3.5575851662       41.7919359596  TIP3      3081            0.0000000000
     27959      3241  TIP3      H2            -15.0746909527        3.8593866877       41.7612081893  TIP3      3081            0.0000000000
     27960      3242  TIP3      OH2           -12.8961731195        5.5541350144       40.0437896737  TIP3      3082            0.0000000000
     27961      3242  TIP3      H1            -12.1844183775        5.1752926345       39.4990092105  TIP3      3082            0.0000000000
     27962      3242  TIP3      H2            -12.4117967036        5.6652941441       40.8945522244  TIP3      3082            0.0000000000
     27963      3243  TIP3      OH2            -5.7093543845       20.7922576101       41.0342191085  TIP3      3083            0.0000000000
     27964      3243  TIP3      H1             -5.0427669202       21.3895066165       40.6753695881  TIP3      3083            0.0000000000
     27965      3243  TIP3      H2             -5.7395621976       20.1339418392       40.3095549302  TIP3      3083            0.0000000000
     27966      3244  TIP3      OH2           -12.4166185910       20.4983896022       39.5436580173  TIP3      3084            0.0000000000
     27967      3244  TIP3      H1            -12.8653038463       21.1962270887       40.0785738137  TIP3      3084            0.0000000000
     27968      3244  TIP3      H2            -12.1351815564       19.9432186413       40.2913975460  TIP3      3084            0.0000000000
     27969      3245  TIP3      OH2            13.0537159742       10.5593809307       40.1322426319  TIP3      3085            0.0000000000
     27970      3245  TIP3      H1             13.7405896947       11.0746910041       40.6036508614  TIP3      3085            0.0000000000
     27971      3245  TIP3      H2             13.6183135321        9.8531317676       39.7719219154  TIP3      3085            0.0000000000
     27972      3246  TIP3      OH2            15.6277884669       11.2019565061       41.1272546453  TIP3      3086            0.0000000000
     27973      3246  TIP3      H1             15.9748521990       11.4441679826       42.0040005723  TIP3      3086            0.0000000000
     27974      3246  TIP3      H2             15.9896237148       11.9504071834       40.5850430083  TIP3      3086            0.0000000000
     27975      3247  TIP3      OH2            19.2172618335        3.0373241643       42.0068105439  TIP3      3087            0.0000000000
     27976      3247  TIP3      H1             18.2881874590        2.9623174094       41.7352625334  TIP3      3087            0.0000000000
     27977      3247  TIP3      H2             19.4758576730        3.9140558762       41.6357056885  TIP3      3087            0.0000000000
     27978      3248  TIP3      OH2            20.9120129825       17.5048001587       39.2613770767  TIP3      3088            0.0000000000
     27979      3248  TIP3      H1             20.7010102972       18.3858524803       39.6508336677  TIP3      3088            0.0000000000
     27980      3248  TIP3      H2             21.5480111394       17.2039798372       39.9544835511  TIP3      3088            0.0000000000
     27981      3249  TIP3      OH2            16.1493391816       19.9445593227       40.6776483756  TIP3      3089            0.0000000000
     27982      3249  TIP3      H1             16.3894859445       19.2366121795       40.0520006543  TIP3      3089            0.0000000000
     27983      3249  TIP3      H2             16.2968366081       19.4984996186       41.5263792297  TIP3      3089            0.0000000000
     27984      3250  TIP3      OH2            16.8428165834       13.0087330593       39.7355185723  TIP3      3090            0.0000000000
     27985      3250  TIP3      H1             16.6343534292       12.8530822823       38.7871418606  TIP3      3090            0.0000000000
     27986      3250  TIP3      H2             17.6778924321       13.4854377711       39.6831609632  TIP3      3090            0.0000000000
     27987      3251  TIP3      OH2            12.5563163952        6.0136211097       40.6088546993  TIP3      3091            0.0000000000
     27988      3251  TIP3      H1             11.5836256060        6.0456667536       40.5806882162  TIP3      3091            0.0000000000
     27989      3251  TIP3      H2             12.7397858247        5.4435182443       39.8461693341  TIP3      3091            0.0000000000
     27990      3252  TIP3      OH2             9.1795593537        6.5876207307       39.2149190499  TIP3      3092            0.0000000000
     27991      3252  TIP3      H1              8.4492024502        6.2311660286       39.7602909905  TIP3      3092            0.0000000000
     27992      3252  TIP3      H2              8.6629486823        7.2110448521       38.6537949975  TIP3      3092            0.0000000000
     27993      3253  TIP3      OH2             3.5371756929        6.8234260035       41.5211816426  TIP3      3093            0.0000000000
     27994      3253  TIP3      H1              4.3839575536        6.9429218856       41.0598419343  TIP3      3093            0.0000000000
     27995      3253  TIP3      H2              3.4825726437        7.6117546391       42.0754700006  TIP3      3093            0.0000000000
     27996      3254  TIP3      OH2             8.1674080005        9.2928158738       40.5951823642  TIP3      3094            0.0000000000
     27997      3254  TIP3      H1              7.8573816372        8.8726398410       39.7701348102  TIP3      3094            0.0000000000
     27998      3254  TIP3      H2              9.0308357116        9.6025713438       40.2932306805  TIP3      3094            0.0000000000
     27999      3255  TIP3      OH2            15.4084038016        6.9242131559       40.3836050886  TIP3      3095            0.0000000000
     28000      3255  TIP3      H1             14.4541997624        7.1071031096       40.4111543229  TIP3      3095            0.0000000000
     28001      3255  TIP3      H2             15.7530757771        7.6453398071       40.9609118735  TIP3      3095            0.0000000000
     28002      3256  TIP3      OH2            16.1512204847        8.7022419462       42.1534843701  TIP3      3096            0.0000000000
     28003      3256  TIP3      H1             17.0502678558        8.7443590458       42.5346445648  TIP3      3096            0.0000000000
     28004      3256  TIP3      H2             16.1311361635        9.4503357913       41.5245705356  TIP3      3096            0.0000000000
     28005      3257  TIP3      OH2            12.5608638412       15.1338193275       40.7241277274  TIP3      3097            0.0000000000
     28006      3257  TIP3      H1             12.4621825406       16.0427746654       41.0959631616  TIP3      3097            0.0000000000
     28007      3257  TIP3      H2             12.8089528929       14.6815490566       41.5503505353  TIP3      3097            0.0000000000
     28008      3258  TIP3      OH2            20.8480336526        8.9962355360       41.8488508443  TIP3      3098            0.0000000000
     28009      3258  TIP3      H1             20.2516887998        8.6693834586       41.1303948105  TIP3      3098            0.0000000000
     28010      3258  TIP3      H2             21.0053825867        9.9194320419       41.5527855616  TIP3      3098            0.0000000000
     28011      3259  TIP3      OH2             4.8761230990       11.5070215153       39.9320874604  TIP3      3099            0.0000000000
     28012      3259  TIP3      H1              5.2903034958       12.1676823999       40.5387516693  TIP3      3099            0.0000000000
     28013      3259  TIP3      H2              3.9788548229       11.4900885575       40.3192019572  TIP3      3099            0.0000000000
     28014      3260  TIP3      OH2            17.2633714845       15.6913690391       40.4248309204  TIP3      3100            0.0000000000
     28015      3260  TIP3      H1             16.9739158172       16.0863231873       41.2600422872  TIP3      3100            0.0000000000
     28016      3260  TIP3      H2             16.4302713598       15.2535778203       40.1493450989  TIP3      3100            0.0000000000
     28017      3261  TIP3      OH2            20.6489063673       19.8936785646       40.5064050408  TIP3      3101            0.0000000000
     28018      3261  TIP3      H1             21.5295662137       20.2858936419       40.5765121953  TIP3      3101            0.0000000000
     28019      3261  TIP3      H2             20.1297178818       20.5446488682       41.0165295485  TIP3      3101            0.0000000000
     28020      3262  TIP3      OH2            10.9435048491       16.8790965320       38.5275788104  TIP3      3102            0.0000000000
     28021      3262  TIP3      H1             10.4228218746       16.2275639674       38.0311598961  TIP3      3102            0.0000000000
     28022      3262  TIP3      H2             11.0836517261       16.4170812015       39.3786300324  TIP3      3102            0.0000000000
     28023      3263  TIP3      OH2             9.3485865480       16.0879626017       41.4438817407  TIP3      3103            0.0000000000
     28024      3263  TIP3      H1              9.8238153929       15.7214333686       42.2085016647  TIP3      3103            0.0000000000
     28025      3263  TIP3      H2              9.5733533818       17.0313784355       41.5453040958  TIP3      3103            0.0000000000
     28026      3264  TIP3      OH2             5.6060559563       13.4571288469       41.5906600274  TIP3      3104            0.0000000000
     28027      3264  TIP3      H1              5.9321191772       12.8133056900       42.2627356061  TIP3      3104            0.0000000000
     28028      3264  TIP3      H2              5.9699510821       14.2936868788       41.9065669179  TIP3      3104            0.0000000000
     28029      3265  TIP3      OH2            11.8731174999       17.6011583008       41.1127087159  TIP3      3105            0.0000000000
     28030      3265  TIP3      H1             11.0220587245       18.0467841133       41.2622100192  TIP3      3105            0.0000000000
     28031      3265  TIP3      H2             12.4743464631       18.3739393577       41.0955950195  TIP3      3105            0.0000000000
     28032      3266  TIP3      OH2             9.6324851913       18.7932918022       41.9730376327  TIP3      3106            0.0000000000
     28033      3266  TIP3      H1              9.3739003187       19.3912905402       41.2329165137  TIP3      3106            0.0000000000
     28034      3266  TIP3      H2             10.3295316523       19.3093344841       42.4258862406  TIP3      3106            0.0000000000
     28035      3267  TIP3      OH2             7.7543493906        5.5658741359       41.3163919529  TIP3      3107            0.0000000000
     28036      3267  TIP3      H1              8.3463534122        6.0664077270       41.9203563493  TIP3      3107            0.0000000000
     28037      3267  TIP3      H2              8.2900722756        4.7865234590       41.0978824633  TIP3      3107            0.0000000000
     28038      3268  TIP3      OH2             6.4566786820       16.1346492177       40.4555286516  TIP3      3108            0.0000000000
     28039      3268  TIP3      H1              7.0702610434       16.3741071260       41.1712189915  TIP3      3108            0.0000000000
     28040      3268  TIP3      H2              7.0920860584       15.6611663545       39.8832180884  TIP3      3108            0.0000000000
     28041      3269  TIP3      OH2             4.7158119210        8.6989252468       39.6457469135  TIP3      3109            0.0000000000
     28042      3269  TIP3      H1              5.2408234635        9.4993446474       39.8406474747  TIP3      3109            0.0000000000
     28043      3269  TIP3      H2              3.8380383518        8.9529003635       39.9567123619  TIP3      3109            0.0000000000
     28044      3270  TIP3      OH2            13.0214530505       18.7840728083       38.8565053710  TIP3      3110            0.0000000000
     28045      3270  TIP3      H1             12.5424670927       17.9213380526       38.9325317648  TIP3      3110            0.0000000000
     28046      3270  TIP3      H2             13.9052081618       18.4967668739       38.5449293358  TIP3      3110            0.0000000000
     28047      3271  TIP3      OH2            17.2785936960       18.1000323853       39.0028588229  TIP3      3111            0.0000000000
     28048      3271  TIP3      H1             17.6047509873       17.4268004179       39.6240940985  TIP3      3111            0.0000000000
     28049      3271  TIP3      H2             18.0189162728       18.1805360811       38.3566597310  TIP3      3111            0.0000000000
     28050      3272  TIP3      OH2             8.1824542334       13.9730639240       38.7217801300  TIP3      3112            0.0000000000
     28051      3272  TIP3      H1              8.2987407036       13.5088767357       39.5688242724  TIP3      3112            0.0000000000
     28052      3272  TIP3      H2              9.0471352269       13.7918340842       38.2921599917  TIP3      3112            0.0000000000
     28053      3273  TIP3      OH2            14.0380123145       15.4032648140       38.5086322697  TIP3      3113            0.0000000000
     28054      3273  TIP3      H1             13.4037324558       15.3585907121       39.2673834268  TIP3      3113            0.0000000000
     28055      3273  TIP3      H2             14.0303161438       14.4545706802       38.2546457457  TIP3      3113            0.0000000000
     28056      3274  TIP3      OH2             9.0345122398       12.3049590987       41.0306138022  TIP3      3114            0.0000000000
     28057      3274  TIP3      H1              8.4318176550       11.8515608683       41.6505134418  TIP3      3114            0.0000000000
     28058      3274  TIP3      H2              9.1873684914       11.5986282465       40.3687841308  TIP3      3114            0.0000000000
     28059      3275  TIP3      OH2            10.3883650979       10.6654563884       39.2082927397  TIP3      3115            0.0000000000
     28060      3275  TIP3      H1             10.5435264556       11.1012431762       38.3460225687  TIP3      3115            0.0000000000
     28061      3275  TIP3      H2             11.3066595825       10.4793823941       39.4909208467  TIP3      3115            0.0000000000
     28062      3276  TIP3      OH2            19.8447293804       12.8115985711       39.4046813222  TIP3      3116            0.0000000000
     28063      3276  TIP3      H1             19.5588354542       12.3825744361       38.5799544993  TIP3      3116            0.0000000000
     28064      3276  TIP3      H2             20.1295861710       13.6930152196       39.0728081914  TIP3      3116            0.0000000000
     28065      3277  TIP3      OH2             9.6767315805       21.4818989461       41.2561995163  TIP3      3117            0.0000000000
     28066      3277  TIP3      H1             10.6207912972       21.1889940229       41.2565962482  TIP3      3117            0.0000000000
     28067      3277  TIP3      H2              9.6619084686       21.9694827875       40.4075682994  TIP3      3117            0.0000000000
     28068      3278  TIP3      OH2             3.8667915629       15.7258931331       40.5162287799  TIP3      3118            0.0000000000
     28069      3278  TIP3      H1              4.8483885511       15.8500745377       40.5257704656  TIP3      3118            0.0000000000
     28070      3278  TIP3      H2              3.7576359781       15.3195387601       39.6315878816  TIP3      3118            0.0000000000
     28071      3279  TIP3      OH2            21.5146176544       11.4445370356       40.9448350161  TIP3      3119            0.0000000000
     28072      3279  TIP3      H1             21.0488769739       11.8872489207       40.1974795566  TIP3      3119            0.0000000000
     28073      3279  TIP3      H2             21.2384457460       12.0413057182       41.6676142223  TIP3      3119            0.0000000000
     28074      3280  TIP3      OH2            19.1214699107        8.6866418564       39.7222414614  TIP3      3120            0.0000000000
     28075      3280  TIP3      H1             19.2369531385        9.2834509965       38.9767201292  TIP3      3120            0.0000000000
     28076      3280  TIP3      H2             18.7238674046        7.9159446083       39.2541748946  TIP3      3120            0.0000000000
     28077      3281  TIP3      OH2            18.3077490344        6.2384685413       38.8427436610  TIP3      3121            0.0000000000
     28078      3281  TIP3      H1             18.8431529364        5.9153392499       39.5918250292  TIP3      3121            0.0000000000
     28079      3281  TIP3      H2             17.4183244751        6.2667424503       39.2281271313  TIP3      3121            0.0000000000
     28080      3282  TIP3      OH2            20.5756512402        5.0692715841       40.7467380768  TIP3      3122            0.0000000000
     28081      3282  TIP3      H1             21.2474842836        4.5407368087       40.2732577970  TIP3      3122            0.0000000000
     28082      3282  TIP3      H2             21.0335709022        5.9176339196       40.8916495358  TIP3      3122            0.0000000000
     28083      3283  TIP3      OH2             4.7235832440        3.0204829681       41.6763461453  TIP3      3123            0.0000000000
     28084      3283  TIP3      H1              4.5867254040        3.5911978774       40.8951940911  TIP3      3123            0.0000000000
     28085      3283  TIP3      H2              4.0563912940        3.4061887877       42.2841044706  TIP3      3123            0.0000000000
     28086      3284  TIP3      OH2             5.2874768133        5.1652025717       40.0502216166  TIP3      3124            0.0000000000
     28087      3284  TIP3      H1              5.7789638211        4.5160386385       39.5183408304  TIP3      3124            0.0000000000
     28088      3284  TIP3      H2              5.9112188579        5.2912781139       40.7868295859  TIP3      3124            0.0000000000
     28089      3285  TIP3      OH2            12.1090039040       20.3924721661       40.9107222764  TIP3      3125            0.0000000000
     28090      3285  TIP3      H1             12.8290880670       21.0355203631       41.1268930642  TIP3      3125            0.0000000000
     28091      3285  TIP3      H2             12.5415647408       19.9715136078       40.1336304173  TIP3      3125            0.0000000000
     28092      3286  TIP3      OH2             6.0217716273       20.6601732767       39.4338322468  TIP3      3126            0.0000000000
     28093      3286  TIP3      H1              5.3333346604       20.8749519638       40.0974701940  TIP3      3126            0.0000000000
     28094      3286  TIP3      H2              5.9297843554       19.7052546229       39.3091205767  TIP3      3126            0.0000000000
     28095      3287  TIP3      OH2            31.7723824632       10.4163385333       40.1938576537  TIP3      3127            0.0000000000
     28096      3287  TIP3      H1             32.0138293315       10.8228986685       41.0568334256  TIP3      3127            0.0000000000
     28097      3287  TIP3      H2             32.2323791158        9.5622581278       40.2186684566  TIP3      3127            0.0000000000
     28098      3288  TIP3      OH2            35.0620655881       11.5461713956       41.5111160805  TIP3      3128            0.0000000000
     28099      3288  TIP3      H1             35.5025993523       12.2682367199       41.9829276883  TIP3      3128            0.0000000000
     28100      3288  TIP3      H2             34.1314599303       11.7432217864       41.7676787424  TIP3      3128            0.0000000000
     28101      3289  TIP3      OH2            34.8665472670       19.9017324133       40.7192802445  TIP3      3129            0.0000000000
     28102      3289  TIP3      H1             35.7731416017       19.6259761677       40.5249227574  TIP3      3129            0.0000000000
     28103      3289  TIP3      H2             34.9422546121       19.9617655908       41.6933033043  TIP3      3129            0.0000000000
     28104      3290  TIP3      OH2            31.0286366628        7.1733980591       40.6120795358  TIP3      3130            0.0000000000
     28105      3290  TIP3      H1             31.2871355350        7.3645076127       41.5257215839  TIP3      3130            0.0000000000
     28106      3290  TIP3      H2             31.0039066727        6.1892714327       40.5664301780  TIP3      3130            0.0000000000
     28107      3291  TIP3      OH2            27.8583230953        6.3298235596       39.1537404058  TIP3      3131            0.0000000000
     28108      3291  TIP3      H1             28.2087497029        5.7008858564       38.5028905012  TIP3      3131            0.0000000000
     28109      3291  TIP3      H2             26.9852068530        6.4916431945       38.7775130000  TIP3      3131            0.0000000000
     28110      3292  TIP3      OH2            22.4891263952        6.8474471307       41.5274797037  TIP3      3132            0.0000000000
     28111      3292  TIP3      H1             22.9539529263        7.1644829757       40.7339656756  TIP3      3132            0.0000000000
     28112      3292  TIP3      H2             21.9785729329        7.6644919156       41.7238883400  TIP3      3132            0.0000000000
     28113      3293  TIP3      OH2            26.7764924824        8.7136722766       40.7830756615  TIP3      3133            0.0000000000
     28114      3293  TIP3      H1             26.2939035897        8.6547704465       39.9387910916  TIP3      3133            0.0000000000
     28115      3293  TIP3      H2             27.4154778567        9.4111134714       40.5400300786  TIP3      3133            0.0000000000
     28116      3294  TIP3      OH2            33.8170500970        6.8709691988       40.5253095043  TIP3      3134            0.0000000000
     28117      3294  TIP3      H1             32.9327092306        6.5570964288       40.2536672863  TIP3      3134            0.0000000000
     28118      3294  TIP3      H2             33.6323683914        7.6563185155       41.0860719832  TIP3      3134            0.0000000000
     28119      3295  TIP3      OH2            34.2785953128        9.0130903403       42.1208097128  TIP3      3135            0.0000000000
     28120      3295  TIP3      H1             35.1341908058        8.7866947770       42.5235419308  TIP3      3135            0.0000000000
     28121      3295  TIP3      H2             34.5898077072        9.7353115804       41.5434214276  TIP3      3135            0.0000000000
     28122      3296  TIP3      OH2            32.3496957312       15.4935863488       41.2944462369  TIP3      3136            0.0000000000
     28123      3296  TIP3      H1             31.8316252942       16.3335927002       41.2894474584  TIP3      3136            0.0000000000
     28124      3296  TIP3      H2             31.7528790695       14.8321529124       41.6909079592  TIP3      3136            0.0000000000
     28125      3297  TIP3      OH2            24.2032374306       11.8473972697       40.2298033472  TIP3      3137            0.0000000000
     28126      3297  TIP3      H1             24.5917342119       12.6046129889       40.7249945828  TIP3      3137            0.0000000000
     28127      3297  TIP3      H2             23.3220676010       11.8503528754       40.6480872267  TIP3      3137            0.0000000000
     28128      3298  TIP3      OH2            29.8487432574       16.4307043643       38.8969745353  TIP3      3138            0.0000000000
     28129      3298  TIP3      H1             29.4590888276       15.9466200047       38.1536096354  TIP3      3138            0.0000000000
     28130      3298  TIP3      H2             29.2887509955       16.1389928944       39.6412368117  TIP3      3138            0.0000000000
     28131      3299  TIP3      OH2            28.3217190682       16.0773499294       41.3160618119  TIP3      3139            0.0000000000
     28132      3299  TIP3      H1             29.0773626146       15.8123028565       41.8618059840  TIP3      3139            0.0000000000
     28133      3299  TIP3      H2             28.0765189787       16.9242737148       41.7508173626  TIP3      3139            0.0000000000
     28134      3300  TIP3      OH2            24.6223884910       13.6572743109       42.1980719123  TIP3      3140            0.0000000000
     28135      3300  TIP3      H1             24.3058393304       12.9891329799       42.8339463511  TIP3      3140            0.0000000000
     28136      3300  TIP3      H2             25.5469742547       13.8064543280       42.4948456604  TIP3      3140            0.0000000000
     28137      3301  TIP3      OH2            30.9070280764       17.7015277287       41.5261352567  TIP3      3141            0.0000000000
     28138      3301  TIP3      H1             29.9635138499       17.8739919503       41.6949164313  TIP3      3141            0.0000000000
     28139      3301  TIP3      H2             31.1722071203       18.5550099249       41.1194002420  TIP3      3141            0.0000000000
     28140      3302  TIP3      OH2            28.4720553031       18.4870886336       42.4002656438  TIP3      3142            0.0000000000
     28141      3302  TIP3      H1             28.4929413654       19.1289510749       41.6444552296  TIP3      3142            0.0000000000
     28142      3302  TIP3      H2             28.4561272064       19.1044104834       43.1503926342  TIP3      3142            0.0000000000
     28143      3303  TIP3      OH2            27.5023172428        5.1727785844       41.5832396114  TIP3      3143            0.0000000000
     28144      3303  TIP3      H1             27.8002798524        5.6989128151       40.7997265865  TIP3      3143            0.0000000000
     28145      3303  TIP3      H2             27.9289703552        4.3170257229       41.3976344139  TIP3      3143            0.0000000000
     28146      3304  TIP3      OH2            25.2696508983       16.0646737774       40.2140252098  TIP3      3144            0.0000000000
     28147      3304  TIP3      H1             25.8580057513       16.2941006494       40.9477417897  TIP3      3144            0.0000000000
     28148      3304  TIP3      H2             25.8745762900       15.4539609947       39.7531876622  TIP3      3144            0.0000000000
     28149      3305  TIP3      OH2            23.3965904704        9.1520649300       40.1225895615  TIP3      3145            0.0000000000
     28150      3305  TIP3      H1             24.0574320028        9.7572241970       40.5252879390  TIP3      3145            0.0000000000
     28151      3305  TIP3      H2             22.6378166132        9.7558007229       40.0196447631  TIP3      3145            0.0000000000
     28152      3306  TIP3      OH2            31.7121777152       18.6622810068       38.8898183652  TIP3      3146            0.0000000000
     28153      3306  TIP3      H1             31.3469218924       17.7512061897       39.0166233243  TIP3      3146            0.0000000000
     28154      3306  TIP3      H2             32.5304500762       18.4411148910       38.4014731521  TIP3      3146            0.0000000000
     28155      3307  TIP3      OH2            27.1791055237       13.9911391086       38.6453847669  TIP3      3147            0.0000000000
     28156      3307  TIP3      H1             27.4790083393       13.6486135558       39.5185767018  TIP3      3147            0.0000000000
     28157      3307  TIP3      H2             27.8504176748       13.5876527676       38.0533174025  TIP3      3147            0.0000000000
     28158      3308  TIP3      OH2            33.0013139094       15.2732034815       38.6512498030  TIP3      3148            0.0000000000
     28159      3308  TIP3      H1             32.8894763670       15.3271763829       39.6368046168  TIP3      3148            0.0000000000
     28160      3308  TIP3      H2             32.5441341681       14.4182729383       38.4656010913  TIP3      3148            0.0000000000
     28161      3309  TIP3      OH2            28.1015930290       12.5722980711       40.8196490836  TIP3      3149            0.0000000000
     28162      3309  TIP3      H1             28.1348954837       12.2103975705       41.7209851602  TIP3      3149            0.0000000000
     28163      3309  TIP3      H2             28.4522235058       11.7979843219       40.3193358162  TIP3      3149            0.0000000000
     28164      3310  TIP3      OH2            29.1930661798       10.5266016044       39.4349910334  TIP3      3150            0.0000000000
     28165      3310  TIP3      H1             29.1415301306       10.9239154824       38.5345163891  TIP3      3150            0.0000000000
     28166      3310  TIP3      H2             30.1664804284       10.4059346869       39.5661000877  TIP3      3150            0.0000000000
     28167      3311  TIP3      OH2            29.1742468692       20.5890477884       40.7799668338  TIP3      3151            0.0000000000
     28168      3311  TIP3      H1             29.3551852153       21.3008055537       41.4320022094  TIP3      3151            0.0000000000
     28169      3311  TIP3      H2             29.3570947136       21.1270895811       39.9771255617  TIP3      3151            0.0000000000
     28170      3312  TIP3      OH2            22.6109482644       15.9583588185       40.6095932333  TIP3      3152            0.0000000000
     28171      3312  TIP3      H1             23.5833131150       15.8080411766       40.5074866314  TIP3      3152            0.0000000000
     28172      3312  TIP3      H2             22.2744094684       15.4375956998       39.8671324268  TIP3      3152            0.0000000000
     28173      3313  TIP3      OH2            22.4861730627        3.4284956678       42.1158487741  TIP3      3153            0.0000000000
     28174      3313  TIP3      H1             23.0186425604        3.2097242728       41.3237393548  TIP3      3153            0.0000000000
     28175      3313  TIP3      H2             23.0502311755        4.1255597942       42.4974409201  TIP3      3153            0.0000000000
     28176      3314  TIP3      OH2            25.2754049748        5.5837382376       40.0735993468  TIP3      3154            0.0000000000
     28177      3314  TIP3      H1             24.7575725244        4.7764873517       39.8085570501  TIP3      3154            0.0000000000
     28178      3314  TIP3      H2             26.1328575567        5.1725676350       40.3250557548  TIP3      3154            0.0000000000
     28179      3315  TIP3      OH2            32.2001127525       20.0462140890       41.1036115639  TIP3      3155            0.0000000000
     28180      3315  TIP3      H1             33.1300247341       20.3024892543       40.9521071683  TIP3      3155            0.0000000000
     28181      3315  TIP3      H2             31.9596615545       19.7035097896       40.2198290731  TIP3      3155            0.0000000000
     28182      3316  TIP3      OH2            24.0100768756       19.4522224832       39.2330122815  TIP3      3156            0.0000000000
     28183      3316  TIP3      H1             24.1222528204       19.6318677157       40.1835377219  TIP3      3156            0.0000000000
     28184      3316  TIP3      H2             24.9024391432       19.1652135892       38.9650371737  TIP3      3156            0.0000000000
     28185      3317  TIP3      OH2           -24.5728694989       29.4631386657       40.1166359864  TIP3      3157            0.0000000000
     28186      3317  TIP3      H1            -23.7954783504       29.7641003743       40.6475770161  TIP3      3157            0.0000000000
     28187      3317  TIP3      H2            -24.1502053893       28.7652715545       39.5782471077  TIP3      3157            0.0000000000
     28188      3318  TIP3      OH2           -22.3417544937       30.0843595054       41.5162789673  TIP3      3158            0.0000000000
     28189      3318  TIP3      H1            -21.7904333168       30.5030940576       42.2038913780  TIP3      3158            0.0000000000
     28190      3318  TIP3      H2            -21.9451323423       30.4374755910       40.6885999191  TIP3      3158            0.0000000000
     28191      3319  TIP3      OH2           -17.4829173465       22.6316424920       41.7083624222  TIP3      3159            0.0000000000
     28192      3319  TIP3      H1            -18.2017824449       21.9722100703       41.8017384688  TIP3      3159            0.0000000000
     28193      3319  TIP3      H2            -18.0029008791       23.4269774841       41.9464546591  TIP3      3159            0.0000000000
     28194      3320  TIP3      OH2           -21.3322479123       30.8374862702       39.2668982350  TIP3      3160            0.0000000000
     28195      3320  TIP3      H1            -21.0769177550       30.6805174310       38.3354165102  TIP3      3160            0.0000000000
     28196      3320  TIP3      H2            -20.7514539781       31.5973673489       39.4820264259  TIP3      3160            0.0000000000
     28197      3321  TIP3      OH2           -25.0610419492       24.7948467635       39.9950290393  TIP3      3161            0.0000000000
     28198      3321  TIP3      H1            -25.9396597228       25.1514616902       39.8396672022  TIP3      3161            0.0000000000
     28199      3321  TIP3      H2            -25.0337519154       24.1250771171       39.3096849469  TIP3      3161            0.0000000000
     28200      3322  TIP3      OH2           -28.3479831644       25.3287866585       39.3549242415  TIP3      3162            0.0000000000
     28201      3322  TIP3      H1            -29.0023725019       25.0592726065       40.0441607595  TIP3      3162            0.0000000000
     28202      3322  TIP3      H2            -28.9136116164       25.6879672812       38.6563686266  TIP3      3162            0.0000000000
     28203      3323  TIP3      OH2           -33.7043605225       25.8232884989       41.9802274715  TIP3      3163            0.0000000000
     28204      3323  TIP3      H1            -33.7640030506       25.9609455256       41.0246231368  TIP3      3163            0.0000000000
     28205      3323  TIP3      H2            -34.6317929795       25.9088833353       42.2637702154  TIP3      3163            0.0000000000
     28206      3324  TIP3      OH2           -30.2157346944       27.8637784963       40.2996622441  TIP3      3164            0.0000000000
     28207      3324  TIP3      H1            -31.1584329909       27.5875444389       40.3275687153  TIP3      3164            0.0000000000
     28208      3324  TIP3      H2            -29.9855117917       27.7281793027       39.3585011247  TIP3      3164            0.0000000000
     28209      3325  TIP3      OH2           -22.2745081001       25.9590270452       40.2130449181  TIP3      3165            0.0000000000
     28210      3325  TIP3      H1            -22.7131122138       26.6371130292       39.6412465936  TIP3      3165            0.0000000000
     28211      3325  TIP3      H2            -21.8580462425       26.5444699736       40.8962466921  TIP3      3165            0.0000000000
     28212      3326  TIP3      OH2           -21.6029810044       27.6016794676       42.0629618625  TIP3      3166            0.0000000000
     28213      3326  TIP3      H1            -20.9093561496       27.6629799302       42.7486719327  TIP3      3166            0.0000000000
     28214      3326  TIP3      H2            -21.6940983441       28.5260390292       41.7411004201  TIP3      3166            0.0000000000
     28215      3327  TIP3      OH2           -24.7161201297       34.1246937390       41.9699387313  TIP3      3167            0.0000000000
     28216      3327  TIP3      H1            -23.9858935352       34.4530792803       41.4074127490  TIP3      3167            0.0000000000
     28217      3327  TIP3      H2            -24.4187429463       33.2203360052       42.1447751852  TIP3      3167            0.0000000000
     28218      3328  TIP3      OH2           -16.8203702629       27.8706625348       41.8243779294  TIP3      3168            0.0000000000
     28219      3328  TIP3      H1            -17.3038049849       27.7223987888       40.9881039445  TIP3      3168            0.0000000000
     28220      3328  TIP3      H2            -16.5195818544       28.7895711783       41.6666526036  TIP3      3168            0.0000000000
     28221      3329  TIP3      OH2           -32.7009288563       30.4760267282       40.1470821773  TIP3      3169            0.0000000000
     28222      3329  TIP3      H1            -32.1976821710       30.9912071183       40.8225782231  TIP3      3169            0.0000000000
     28223      3329  TIP3      H2            -33.5924369937       30.8176623406       40.3220178167  TIP3      3169            0.0000000000
     28224      3330  TIP3      OH2           -22.3449059256       34.8142244313       40.3742937526  TIP3      3170            0.0000000000
     28225      3330  TIP3      H1            -22.1869810606       35.4265610190       41.1115793293  TIP3      3170            0.0000000000
     28226      3330  TIP3      H2            -21.5396364481       34.2364432879       40.4850107785  TIP3      3170            0.0000000000
     28227      3331  TIP3      OH2           -31.7939045065       32.2539558762       41.7973235715  TIP3      3171            0.0000000000
     28228      3331  TIP3      H1            -32.6674803520       32.7055624483       41.7501688599  TIP3      3171            0.0000000000
     28229      3331  TIP3      H2            -31.2377418676       33.0115438096       41.5159798123  TIP3      3171            0.0000000000
     28230      3332  TIP3      OH2           -29.9840108980       24.3174707364       41.3696054636  TIP3      3172            0.0000000000
     28231      3332  TIP3      H1            -30.2827965145       24.4661929476       42.2773343827  TIP3      3172            0.0000000000
     28232      3332  TIP3      H2            -29.6785402105       23.3973876404       41.4032727440  TIP3      3172            0.0000000000
     28233      3333  TIP3      OH2           -30.5593503546       34.3856867807       40.6494570800  TIP3      3173            0.0000000000
     28234      3333  TIP3      H1            -29.9877778909       35.1532730780       40.8289886258  TIP3      3173            0.0000000000
     28235      3333  TIP3      H2            -30.1016033240       33.9438695892       39.9086442461  TIP3      3173            0.0000000000
     28236      3334  TIP3      OH2           -32.8649386169       27.7296530150       39.8836921795  TIP3      3174            0.0000000000
     28237      3334  TIP3      H1            -32.8659582108       28.7184494228       39.8384295107  TIP3      3174            0.0000000000
     28238      3334  TIP3      H2            -33.5946377519       27.4398197179       39.3299167618  TIP3      3174            0.0000000000
     28239      3335  TIP3      OH2           -29.5483144794       32.5861489811       38.7876878133  TIP3      3175            0.0000000000
     28240      3335  TIP3      H1            -29.1624071953       32.0752435306       39.5276192376  TIP3      3175            0.0000000000
     28241      3335  TIP3      H2            -28.7768969694       32.5941095593       38.1734178819  TIP3      3175            0.0000000000
     28242      3336  TIP3      OH2           -25.0219848961       34.4683678825       38.1876214420  TIP3      3176            0.0000000000
     28243      3336  TIP3      H1            -24.2914102881       34.6828853936       38.7904025569  TIP3      3176            0.0000000000
     28244      3336  TIP3      H2            -24.8355519625       33.5117000277       38.0406646842  TIP3      3176            0.0000000000
     28245      3337  TIP3      OH2           -28.5659418133       31.3717814422       41.0973403292  TIP3      3177            0.0000000000
     28246      3337  TIP3      H1            -28.8873097617       30.8344209061       41.8347198531  TIP3      3177            0.0000000000
     28247      3337  TIP3      H2            -27.9328471813       30.7961824806       40.6012302509  TIP3      3177            0.0000000000
     28248      3338  TIP3      OH2           -27.3987850400       29.3973567851       39.4264346795  TIP3      3178            0.0000000000
     28249      3338  TIP3      H1            -27.7049981060       29.5252072858       38.5099086633  TIP3      3178            0.0000000000
     28250      3338  TIP3      H2            -26.4189337188       29.3445445093       39.2831297784  TIP3      3178            0.0000000000
     28251      3339  TIP3      OH2           -17.7083498504       31.6238912921       39.0670630520  TIP3      3179            0.0000000000
     28252      3339  TIP3      H1            -18.2160205461       31.6979895039       38.2487279289  TIP3      3179            0.0000000000
     28253      3339  TIP3      H2            -18.3056690068       32.0702992201       39.7039280935  TIP3      3179            0.0000000000
     28254      3340  TIP3      OH2           -33.0335775141       35.3774399025       39.5691675652  TIP3      3180            0.0000000000
     28255      3340  TIP3      H1            -32.2351952637       34.8592356276       39.7600637707  TIP3      3180            0.0000000000
     28256      3340  TIP3      H2            -33.7083151644       34.7979168147       40.0041617960  TIP3      3180            0.0000000000
     28257      3341  TIP3      OH2           -16.2677175732       30.3858158865       40.9920330421  TIP3      3181            0.0000000000
     28258      3341  TIP3      H1            -16.5882418568       30.8822715691       40.1978193306  TIP3      3181            0.0000000000
     28259      3341  TIP3      H2            -16.4686052414       31.0476939687       41.6899322769  TIP3      3181            0.0000000000
     28260      3342  TIP3      OH2           -18.5191582869       27.4307021552       39.5914590532  TIP3      3182            0.0000000000
     28261      3342  TIP3      H1            -18.2261593903       28.0869673415       38.9518448529  TIP3      3182            0.0000000000
     28262      3342  TIP3      H2            -18.7822125381       26.6864321519       39.0305544421  TIP3      3182            0.0000000000
     28263      3343  TIP3      OH2           -18.9840641967       24.6359752439       38.4585307558  TIP3      3183            0.0000000000
     28264      3343  TIP3      H1            -18.3639243727       24.6664523103       39.2336784506  TIP3      3183            0.0000000000
     28265      3343  TIP3      H2            -19.8709629091       24.6003983053       38.8506189660  TIP3      3183            0.0000000000
     28266      3344  TIP3      OH2           -16.8325906781       24.5459629113       40.0279845518  TIP3      3184            0.0000000000
     28267      3344  TIP3      H1            -16.7318575867       23.5827028629       40.1496722131  TIP3      3184            0.0000000000
     28268      3344  TIP3      H2            -16.2736886826       24.8586876110       40.7656628715  TIP3      3184            0.0000000000
     28269      3345  TIP3      OH2           -33.4593803295       21.9462378134       41.1183659854  TIP3      3185            0.0000000000
     28270      3345  TIP3      H1            -33.3826306392       22.7994744963       40.6356300890  TIP3      3185            0.0000000000
     28271      3345  TIP3      H2            -33.7129998868       22.2582977560       41.9997580756  TIP3      3185            0.0000000000
     28272      3346  TIP3      OH2           -32.3106613382       23.7513370826       39.6895522766  TIP3      3186            0.0000000000
     28273      3346  TIP3      H1            -31.5800562973       23.3475429545       39.1851304173  TIP3      3186            0.0000000000
     28274      3346  TIP3      H2            -31.9370231710       23.8487959299       40.5765416588  TIP3      3186            0.0000000000
     28275      3347  TIP3      OH2            -5.6278312027       28.6282372722       39.8155897451  TIP3      3187            0.0000000000
     28276      3347  TIP3      H1             -5.2640966405       29.3850877841       40.3181158422  TIP3      3187            0.0000000000
     28277      3347  TIP3      H2             -4.8444044411       28.3515386090       39.2969578432  TIP3      3187            0.0000000000
     28278      3348  TIP3      OH2            -4.1563841943       30.6132550262       41.1345936887  TIP3      3188            0.0000000000
     28279      3348  TIP3      H1             -4.6728362125       31.3131225929       41.5787792956  TIP3      3188            0.0000000000
     28280      3348  TIP3      H2             -3.5007128935       31.1571895133       40.6428029630  TIP3      3188            0.0000000000
     28281      3349  TIP3      OH2             0.2091713536       22.2591214596       40.5459985097  TIP3      3189            0.0000000000
     28282      3349  TIP3      H1              0.5848792445       22.8218251555       41.2422744616  TIP3      3189            0.0000000000
     28283      3349  TIP3      H2              0.6941779552       22.6177136276       39.7841742966  TIP3      3189            0.0000000000
     28284      3350  TIP3      OH2            -1.8424086993       31.6037889351       39.9978828683  TIP3      3190            0.0000000000
     28285      3350  TIP3      H1             -2.1386637277       31.5280425691       39.0702918414  TIP3      3190            0.0000000000
     28286      3350  TIP3      H2             -0.8664605517       31.6487601665       39.9059116459  TIP3      3190            0.0000000000
     28287      3351  TIP3      OH2            -6.0536216128       25.0094758340       40.2884278041  TIP3      3191            0.0000000000
     28288      3351  TIP3      H1             -6.6436554226       24.8525370350       41.0532452892  TIP3      3191            0.0000000000
     28289      3351  TIP3      H2             -6.6167780213       24.5696414890       39.6217308888  TIP3      3191            0.0000000000
     28290      3352  TIP3      OH2            -9.5102458270       25.6251142449       39.3442034586  TIP3      3192            0.0000000000
     28291      3352  TIP3      H1             -9.8920598111       25.3505917241       40.1885271912  TIP3      3192            0.0000000000
     28292      3352  TIP3      H2            -10.2053837994       26.2247990789       39.0135609730  TIP3      3192            0.0000000000
     28293      3353  TIP3      OH2           -14.9859683472       25.4332146801       41.7918994770  TIP3      3193            0.0000000000
     28294      3353  TIP3      H1            -14.2671439614       25.4452153355       41.1352886885  TIP3      3193            0.0000000000
     28295      3353  TIP3      H2            -15.1876970286       26.3915195728       41.7974124068  TIP3      3193            0.0000000000
     28296      3354  TIP3      OH2           -10.5320509876       27.9924938073       40.6396906684  TIP3      3194            0.0000000000
     28297      3354  TIP3      H1            -11.0115474361       27.8857972006       39.8001973593  TIP3      3194            0.0000000000
     28298      3354  TIP3      H2             -9.7283452532       28.4238820000       40.2831367274  TIP3      3194            0.0000000000
     28299      3355  TIP3      OH2            -3.5948642561       25.9122539065       40.7302421898  TIP3      3195            0.0000000000
     28300      3355  TIP3      H1             -4.4732625323       25.4657273769       40.6166797809  TIP3      3195            0.0000000000
     28301      3355  TIP3      H2             -3.9518770529       26.8043666606       40.9189299844  TIP3      3195            0.0000000000
     28302      3356  TIP3      OH2            -3.5217541799       28.3395902950      -42.3144767516  TIP3      3196            0.0000000000
     28303      3356  TIP3      H1             -3.0601707122       28.8449920822      -41.6109895612  TIP3      3196            0.0000000000
     28304      3356  TIP3      H2             -3.6363352292       29.0676785357      -42.9687261469  TIP3      3196            0.0000000000
     28305      3357  TIP3      OH2            -5.4484771050       33.6698832244       41.6585189849  TIP3      3197            0.0000000000
     28306      3357  TIP3      H1             -5.6335179387       34.5866259103       41.9195187853  TIP3      3197            0.0000000000
     28307      3357  TIP3      H2             -5.9780116069       33.1913920394       42.3268639139  TIP3      3197            0.0000000000
     28308      3358  TIP3      OH2             2.2052825847       27.7714086923       42.0381012187  TIP3      3198            0.0000000000
     28309      3358  TIP3      H1              1.9716291542       27.3112356750       41.2250864441  TIP3      3198            0.0000000000
     28310      3358  TIP3      H2              2.2329797138       28.6950928186       41.6868145400  TIP3      3198            0.0000000000
     28311      3359  TIP3      OH2           -13.3377009370       30.4953292437       40.1460411411  TIP3      3199            0.0000000000
     28312      3359  TIP3      H1            -12.8919777892       30.8978030452       40.9371563409  TIP3      3199            0.0000000000
     28313      3359  TIP3      H2            -14.2749809309       30.6722203651       40.3621336724  TIP3      3199            0.0000000000
     28314      3360  TIP3      OH2            -2.4006316158       34.4314462940       40.2038368437  TIP3      3200            0.0000000000
     28315      3360  TIP3      H1             -2.3069347096       34.2548247415       41.1537306687  TIP3      3200            0.0000000000
     28316      3360  TIP3      H2             -3.3607741053       34.3496175685       40.0722877925  TIP3      3200            0.0000000000
     28317      3361  TIP3      OH2           -12.8143186571       32.1436103799       42.1131386800  TIP3      3201            0.0000000000
     28318      3361  TIP3      H1            -13.6385917478       32.6476823821       42.0147697990  TIP3      3201            0.0000000000
     28319      3361  TIP3      H2            -12.1291184683       32.8110209946       41.9608058634  TIP3      3201            0.0000000000
     28320      3362  TIP3      OH2           -11.1899169739       24.2584188910       41.5662089233  TIP3      3202            0.0000000000
     28321      3362  TIP3      H1            -11.0316120635       24.9425152366       42.2417305527  TIP3      3202            0.0000000000
     28322      3362  TIP3      H2            -10.2976303098       23.8484476886       41.5514853368  TIP3      3202            0.0000000000
     28323      3363  TIP3      OH2           -12.2187496077       34.6337882806       40.4821411224  TIP3      3203            0.0000000000
     28324      3363  TIP3      H1            -11.7241860726       34.4970514171       41.3171556663  TIP3      3203            0.0000000000
     28325      3363  TIP3      H2            -11.6208020867       34.2046185000       39.8406122028  TIP3      3203            0.0000000000
     28326      3364  TIP3      OH2           -14.2032448110       27.7872144664       40.1149125187  TIP3      3204            0.0000000000
     28327      3364  TIP3      H1            -13.7610497880       28.6582472997       40.1588030269  TIP3      3204            0.0000000000
     28328      3364  TIP3      H2            -14.8484961435       27.8644232777       39.4002332476  TIP3      3204            0.0000000000
     28329      3365  TIP3      OH2           -10.7104397000       32.8524190093       38.8773460459  TIP3      3205            0.0000000000
     28330      3365  TIP3      H1            -10.4504945682       32.1570045577       39.5371837109  TIP3      3205            0.0000000000
     28331      3365  TIP3      H2             -9.8704492029       32.8883312253       38.3705032517  TIP3      3205            0.0000000000
     28332      3366  TIP3      OH2            -4.8217789737       33.8396339501       38.9671233070  TIP3      3206            0.0000000000
     28333      3366  TIP3      H1             -5.1667196557       33.7490754787       39.8823804478  TIP3      3206            0.0000000000
     28334      3366  TIP3      H2             -5.1604088534       33.0108196479       38.5734640000  TIP3      3206            0.0000000000
     28335      3367  TIP3      OH2            -9.6320642640       31.2146443958       40.6408507007  TIP3      3207            0.0000000000
     28336      3367  TIP3      H1             -9.3951826223       31.2017138186       41.5945145635  TIP3      3207            0.0000000000
     28337      3367  TIP3      H2             -9.1980735898       30.4277385116       40.2629739515  TIP3      3207            0.0000000000
     28338      3368  TIP3      OH2            -8.4114885084       29.1034760570       39.2930170240  TIP3      3208            0.0000000000
     28339      3368  TIP3      H1             -8.4250126234       29.4484533201       38.3599706056  TIP3      3208            0.0000000000
     28340      3368  TIP3      H2             -7.4869855774       28.7847664677       39.3612057741  TIP3      3208            0.0000000000
     28341      3369  TIP3      OH2             0.8317469566       31.8994004748       39.5231810000  TIP3      3209            0.0000000000
     28342      3369  TIP3      H1              0.7018912386       31.5044847934       38.6262797486  TIP3      3209            0.0000000000
     28343      3369  TIP3      H2              0.6651492426       32.8515383350       39.3492503943  TIP3      3209            0.0000000000
     28344      3370  TIP3      OH2           -14.8936172888       33.3732867079       40.3917876647  TIP3      3210            0.0000000000
     28345      3370  TIP3      H1            -14.2786824711       34.0603184354       40.0789581009  TIP3      3210            0.0000000000
     28346      3370  TIP3      H2            -15.0991591156       32.9142150611       39.5600790052  TIP3      3210            0.0000000000
     28347      3371  TIP3      OH2             2.1452756682       30.3431474504       41.1710000928  TIP3      3211            0.0000000000
     28348      3371  TIP3      H1              1.4989717762       30.8783627713       40.6540524951  TIP3      3211            0.0000000000
     28349      3371  TIP3      H2              2.3523204003       30.9639981919       41.9023199484  TIP3      3211            0.0000000000
     28350      3372  TIP3      OH2             1.0558642819       27.8901073990       39.1722194523  TIP3      3212            0.0000000000
     28351      3372  TIP3      H1              0.5052387183       28.6217285000       38.8551715968  TIP3      3212            0.0000000000
     28352      3372  TIP3      H2              0.5285804299       27.1008965274       38.9328089224  TIP3      3212            0.0000000000
     28353      3373  TIP3      OH2            -0.0782173631       25.3470810706       39.4023386693  TIP3      3213            0.0000000000
     28354      3373  TIP3      H1              0.3913759582       25.0277714915       40.1923275225  TIP3      3213            0.0000000000
     28355      3373  TIP3      H2             -1.0076896177       25.1243415724       39.6339914464  TIP3      3213            0.0000000000
     28356      3374  TIP3      OH2             2.3293061670       24.1595395804       40.7295556419  TIP3      3214            0.0000000000
     28357      3374  TIP3      H1              2.6568196058       23.4064792673       40.2022481702  TIP3      3214            0.0000000000
     28358      3374  TIP3      H2              2.9391378577       24.1267609184       41.4938438909  TIP3      3214            0.0000000000
     28359      3375  TIP3      OH2           -13.9397617072       22.1646982623       40.9741361021  TIP3      3215            0.0000000000
     28360      3375  TIP3      H1            -13.6283772675       23.0561703135       40.7060744853  TIP3      3215            0.0000000000
     28361      3375  TIP3      H2            -14.7914865873       22.4391467120       41.3646527191  TIP3      3215            0.0000000000
     28362      3376  TIP3      OH2           -13.0908598208       24.3979254744       39.8687595804  TIP3      3216            0.0000000000
     28363      3376  TIP3      H1            -12.6154925570       23.7545382009       39.2962759812  TIP3      3216            0.0000000000
     28364      3376  TIP3      H2            -12.4962680418       24.4182826579       40.6531314249  TIP3      3216            0.0000000000
     28365      3377  TIP3      OH2            12.8864979771       29.0436176812       40.2235505102  TIP3      3217            0.0000000000
     28366      3377  TIP3      H1             13.5629813316       29.5951143785       40.6860170150  TIP3      3217            0.0000000000
     28367      3377  TIP3      H2             13.5105888858       28.4815777856       39.7336839862  TIP3      3217            0.0000000000
     28368      3378  TIP3      OH2            14.8537907872       30.6528058013       41.0066171945  TIP3      3218            0.0000000000
     28369      3378  TIP3      H1             15.0702788619       30.9567854423       41.8930880041  TIP3      3218            0.0000000000
     28370      3378  TIP3      H2             15.6269648827       30.9812202252       40.4915488389  TIP3      3218            0.0000000000
     28371      3379  TIP3      OH2            19.3933071333       21.8479023552       42.0212195193  TIP3      3219            0.0000000000
     28372      3379  TIP3      H1             18.5136149803       21.6343715346       41.6621080775  TIP3      3219            0.0000000000
     28373      3379  TIP3      H2             19.6623411897       22.5901214061       41.4365649643  TIP3      3219            0.0000000000
     28374      3380  TIP3      OH2            17.1895189272       30.9605801925       39.8068310928  TIP3      3220            0.0000000000
     28375      3380  TIP3      H1             16.8912512838       31.3092327760       38.9392188813  TIP3      3220            0.0000000000
     28376      3380  TIP3      H2             17.5665508969       30.1190135274       39.5053562758  TIP3      3220            0.0000000000
     28377      3381  TIP3      OH2            12.6807662452       25.0644752381       39.9606782353  TIP3      3221            0.0000000000
     28378      3381  TIP3      H1             12.1687061941       25.0574048415       40.7788069259  TIP3      3221            0.0000000000
     28379      3381  TIP3      H2             13.2734533908       24.2965606663       40.1589790608  TIP3      3221            0.0000000000
     28380      3382  TIP3      OH2             9.2955299713       25.5800345843       38.8577873339  TIP3      3222            0.0000000000
     28381      3382  TIP3      H1              9.2093781187       25.0683281243       39.6854048758  TIP3      3222            0.0000000000
     28382      3382  TIP3      H2              8.6653390156       26.2997646909       39.0420621649  TIP3      3222            0.0000000000
     28383      3383  TIP3      OH2             4.3305875020       26.0473683802       41.3208868368  TIP3      3223            0.0000000000
     28384      3383  TIP3      H1              4.6477365429       26.8995937029       41.6985548958  TIP3      3223            0.0000000000
     28385      3383  TIP3      H2              4.2115504797       25.5911749276       42.1762320939  TIP3      3223            0.0000000000
     28386      3384  TIP3      OH2             8.0697912458       27.6180533671       40.8515070160  TIP3      3224            0.0000000000
     28387      3384  TIP3      H1              7.6384410447       27.6329675100       39.9807138018  TIP3      3224            0.0000000000
     28388      3384  TIP3      H2              8.9542579920       27.9178513725       40.6438998215  TIP3      3224            0.0000000000
     28389      3385  TIP3      OH2            15.2855537019       25.9308821574       40.4275321610  TIP3      3225            0.0000000000
     28390      3385  TIP3      H1             14.4157564152       25.5909457965       40.7083703269  TIP3      3225            0.0000000000
     28391      3385  TIP3      H2             15.7189440123       26.0349405237       41.2865855593  TIP3      3225            0.0000000000
     28392      3386  TIP3      OH2            15.6494224888       28.1004505960       42.2877969489  TIP3      3226            0.0000000000
     28393      3386  TIP3      H1             16.5544609075       27.8207806681       42.5006901223  TIP3      3226            0.0000000000
     28394      3386  TIP3      H2             15.6074223232       28.2515873292       41.3296468149  TIP3      3226            0.0000000000
     28395      3387  TIP3      OH2            13.3018232081       34.0228762723       41.8648850564  TIP3      3227            0.0000000000
     28396      3387  TIP3      H1             12.7459578483       34.8189238291       41.8711000945  TIP3      3227            0.0000000000
     28397      3387  TIP3      H2             13.1278001832       33.6060236025       42.7278727783  TIP3      3227            0.0000000000
     28398      3388  TIP3      OH2            20.8206186723       27.6732319229       41.9840306918  TIP3      3228            0.0000000000
     28399      3388  TIP3      H1             20.2026025074       27.4628486346       41.2614132891  TIP3      3228            0.0000000000
     28400      3388  TIP3      H2             21.0346484983       28.6074171872       41.7777329106  TIP3      3228            0.0000000000
     28401      3389  TIP3      OH2             4.5495775405       30.5951371161       39.9196625503  TIP3      3229            0.0000000000
     28402      3389  TIP3      H1              5.0605618188       31.0276463774       40.6474226739  TIP3      3229            0.0000000000
     28403      3389  TIP3      H2              3.6533937517       30.5930889496       40.3258845355  TIP3      3229            0.0000000000
     28404      3390  TIP3      OH2            15.8988426642       34.7318135456       40.7790104862  TIP3      3230            0.0000000000
     28405      3390  TIP3      H1             15.7771588388       34.7191857823       41.7448261176  TIP3      3230            0.0000000000
     28406      3390  TIP3      H2             15.0424505335       34.4091793978       40.4393075815  TIP3      3230            0.0000000000
     28407      3391  TIP3      OH2             6.0270049334       32.1248764330       41.7406787770  TIP3      3231            0.0000000000
     28408      3391  TIP3      H1              5.2591030045       32.4002204136       42.2597069441  TIP3      3231            0.0000000000
     28409      3391  TIP3      H2              6.4226070437       32.9813226634       41.4867482334  TIP3      3231            0.0000000000
     28410      3392  TIP3      OH2             8.2237342504       24.3229883337       41.3937258749  TIP3      3232            0.0000000000
     28411      3392  TIP3      H1              7.7118896224       24.2587471206       42.2335373265  TIP3      3232            0.0000000000
     28412      3392  TIP3      H2              8.8723458920       23.6115905975       41.5144771757  TIP3      3232            0.0000000000
     28413      3393  TIP3      OH2             6.8527494623       34.5448605184       40.6843186964  TIP3      3233            0.0000000000
     28414      3393  TIP3      H1              7.1814870165       35.3690156316       41.0714275311  TIP3      3233            0.0000000000
     28415      3393  TIP3      H2              7.5344824794       34.3454705238       40.0192598320  TIP3      3233            0.0000000000
     28416      3394  TIP3      OH2             4.5284681857       27.9454521512       39.1937155505  TIP3      3234            0.0000000000
     28417      3394  TIP3      H1              4.8080359762       28.8631672400       39.4154071864  TIP3      3234            0.0000000000
     28418      3394  TIP3      H2              3.9335413505       27.7518685180       39.9348972431  TIP3      3234            0.0000000000
     28419      3395  TIP3      OH2             8.2592409421       32.8542697503       38.6539886822  TIP3      3235            0.0000000000
     28420      3395  TIP3      H1              7.8877292536       32.0944257539       39.1177663258  TIP3      3235            0.0000000000
     28421      3395  TIP3      H2              8.7981251502       32.5184557260       37.9083277811  TIP3      3235            0.0000000000
     28422      3396  TIP3      OH2            13.9201751942       33.9115338140       38.9459639362  TIP3      3236            0.0000000000
     28423      3396  TIP3      H1             13.5695285601       33.5080295796       39.7545199372  TIP3      3236            0.0000000000
     28424      3396  TIP3      H2             13.7314796401       33.1888469515       38.2956447491  TIP3      3236            0.0000000000
     28425      3397  TIP3      OH2             9.1742823635       30.8826264719       41.0499742230  TIP3      3237            0.0000000000
     28426      3397  TIP3      H1              9.1139740298       30.4117395746       41.9053578031  TIP3      3237            0.0000000000
     28427      3397  TIP3      H2              9.3359382271       30.1356235496       40.4250977894  TIP3      3237            0.0000000000
     28428      3398  TIP3      OH2            10.4282764264       29.3810882654       39.3679532116  TIP3      3238            0.0000000000
     28429      3398  TIP3      H1             10.4662685712       29.4638379423       38.3840130455  TIP3      3238            0.0000000000
     28430      3398  TIP3      H2             11.2984799193       28.9662706601       39.5835911328  TIP3      3238            0.0000000000
     28431      3399  TIP3      OH2            19.9111060973       31.7781405717       38.9749283965  TIP3      3239            0.0000000000
     28432      3399  TIP3      H1             19.2969348846       31.8237434175       38.2154995870  TIP3      3239            0.0000000000
     28433      3399  TIP3      H2             20.4690053670       32.5535701547       38.7592655791  TIP3      3239            0.0000000000
     28434      3400  TIP3      OH2             3.3398971989       33.1745580286       41.0425276618  TIP3      3240            0.0000000000
     28435      3400  TIP3      H1              3.6635275872       34.0842847496       41.1366983732  TIP3      3240            0.0000000000
     28436      3400  TIP3      H2              3.2832752558       33.0521365182       40.0714749641  TIP3      3240            0.0000000000
     28437      3401  TIP3      OH2            21.0165789484       30.6153572571       41.3528119540  TIP3      3241            0.0000000000
     28438      3401  TIP3      H1             20.8405389037       30.5761785755       40.3994089003  TIP3      3241            0.0000000000
     28439      3401  TIP3      H2             21.5773209057       31.4107622516       41.3674002944  TIP3      3241            0.0000000000
     28440      3402  TIP3      OH2            18.8239584709       27.8426470446       39.4803071854  TIP3      3242            0.0000000000
     28441      3402  TIP3      H1             19.6013184469       28.0039486921       38.9249459584  TIP3      3242            0.0000000000
     28442      3402  TIP3      H2             18.6992805702       26.8742532799       39.3532541751  TIP3      3242            0.0000000000
     28443      3403  TIP3      OH2            18.6218887045       25.0968935963       38.9965958457  TIP3      3243            0.0000000000
     28444      3403  TIP3      H1             19.0003831428       24.6461926550       39.7763807686  TIP3      3243            0.0000000000
     28445      3403  TIP3      H2             17.7225879904       24.7248281376       38.9697156316  TIP3      3243            0.0000000000
     28446      3404  TIP3      OH2            20.5868512332       23.5780519278       40.4625287096  TIP3      3244            0.0000000000
     28447      3404  TIP3      H1             20.8581617185       22.9922604003       39.7076526476  TIP3      3244            0.0000000000
     28448      3404  TIP3      H2             21.4680828308       23.8733993209       40.7723411118  TIP3      3244            0.0000000000
     28449      3405  TIP3      OH2             4.5149140687       22.3194692543       41.3668679933  TIP3      3245            0.0000000000
     28450      3405  TIP3      H1              4.9006490997       23.0423406198       40.8168054184  TIP3      3245            0.0000000000
     28451      3405  TIP3      H2              4.3443766520       22.8164185072       42.1925286213  TIP3      3245            0.0000000000
     28452      3406  TIP3      OH2             5.9480564840       24.0353656976       40.0965991896  TIP3      3246            0.0000000000
     28453      3406  TIP3      H1              6.6511231341       23.3740130954       39.9893664482  TIP3      3246            0.0000000000
     28454      3406  TIP3      H2              6.2934381550       24.5116765159       40.8839579220  TIP3      3246            0.0000000000
     28455      3407  TIP3      OH2            31.7800704877       28.7561601464       40.3481648207  TIP3      3247            0.0000000000
     28456      3407  TIP3      H1             32.4776324348       29.1672079527       40.8839055457  TIP3      3247            0.0000000000
     28457      3407  TIP3      H2             32.3171739849       28.3102637608       39.6679907485  TIP3      3247            0.0000000000
     28458      3408  TIP3      OH2            34.7213223843       30.6097412266       41.5045035297  TIP3      3248            0.0000000000
     28459      3408  TIP3      H1             34.0094243128       30.7568701850       42.1559586979  TIP3      3248            0.0000000000
     28460      3408  TIP3      H2             35.0606694878       31.5343700096       41.3765114914  TIP3      3248            0.0000000000
     28461      3409  TIP3      OH2            31.5396922604       25.0830289549       40.2266536362  TIP3      3249            0.0000000000
     28462      3409  TIP3      H1             31.0874491787       24.6117418547       40.9705212825  TIP3      3249            0.0000000000
     28463      3409  TIP3      H2             31.5153383667       24.3642178232       39.5828282089  TIP3      3249            0.0000000000
     28464      3410  TIP3      OH2            28.0886495454       25.6355082129       39.4261638713  TIP3      3250            0.0000000000
     28465      3410  TIP3      H1             27.6664916391       25.0753683277       40.1235943253  TIP3      3250            0.0000000000
     28466      3410  TIP3      H2             27.8283776404       25.1101846569       38.6277043816  TIP3      3250            0.0000000000
     28467      3411  TIP3      OH2            22.5074021873       25.1713246803       41.5780144440  TIP3      3251            0.0000000000
     28468      3411  TIP3      H1             23.2126822093       25.5874120950       41.0444799312  TIP3      3251            0.0000000000
     28469      3411  TIP3      H2             21.9274965059       25.9465448277       41.6978326043  TIP3      3251            0.0000000000
     28470      3412  TIP3      OH2            26.7363188304       28.5051775995       40.6216047020  TIP3      3252            0.0000000000
     28471      3412  TIP3      H1             26.3495154904       27.8137161103       40.0594563015  TIP3      3252            0.0000000000
     28472      3412  TIP3      H2             27.2017350387       29.0066184560       39.9263860717  TIP3      3252            0.0000000000
     28473      3413  TIP3      OH2            34.0399156224       25.8886248316       40.4269583285  TIP3      3253            0.0000000000
     28474      3413  TIP3      H1             33.1090946036       25.5902634626       40.4918049813  TIP3      3253            0.0000000000
     28475      3413  TIP3      H2             34.0251119285       26.5827977089       41.1209672486  TIP3      3253            0.0000000000
     28476      3414  TIP3      OH2            34.3517861117       27.7837081929       42.3872425603  TIP3      3254            0.0000000000
     28477      3414  TIP3      H1             34.1836262284       27.6296693967       43.3404103819  TIP3      3254            0.0000000000
     28478      3414  TIP3      H2             35.0205743535       28.5021781332       42.4270546375  TIP3      3254            0.0000000000
     28479      3415  TIP3      OH2            31.4939163161       34.2834585628       41.4009688261  TIP3      3255            0.0000000000
     28480      3415  TIP3      H1             32.0391329586       35.0727891461       41.5525982802  TIP3      3255            0.0000000000
     28481      3415  TIP3      H2             31.8837978225       33.5854233831       41.9336535794  TIP3      3255            0.0000000000
     28482      3416  TIP3      OH2            23.9008990775       30.4074713405       40.1794957182  TIP3      3256            0.0000000000
     28483      3416  TIP3      H1             24.4858377592       30.8631547239       40.8258495971  TIP3      3256            0.0000000000
     28484      3416  TIP3      H2             23.3137551704       31.1480463960       39.9583301181  TIP3      3256            0.0000000000
     28485      3417  TIP3      OH2            24.7177289036       32.2430319864       42.0850869294  TIP3      3257            0.0000000000
     28486      3417  TIP3      H1             23.9010401403       32.5494503342       42.4985329080  TIP3      3257            0.0000000000
     28487      3417  TIP3      H2             24.9158702370       33.0280281073       41.5185573261  TIP3      3257            0.0000000000
     28488      3418  TIP3      OH2            26.9207341010       24.0781666739       41.3029207663  TIP3      3258            0.0000000000
     28489      3418  TIP3      H1             27.2379129495       24.5989064406       42.0676247978  TIP3      3258            0.0000000000
     28490      3418  TIP3      H2             27.6736705348       23.4509724630       41.2114761793  TIP3      3258            0.0000000000
     28491      3419  TIP3      OH2            25.5877484731       34.3273527812       40.4828990620  TIP3      3259            0.0000000000
     28492      3419  TIP3      H1             25.9287533798       35.2169216450       40.3121709406  TIP3      3259            0.0000000000
     28493      3419  TIP3      H2             26.2756450165       33.8031971412       40.0189381453  TIP3      3259            0.0000000000
     28494      3420  TIP3      OH2            23.5406891801       27.5346571847       40.4349117627  TIP3      3260            0.0000000000
     28495      3420  TIP3      H1             23.7947176014       28.4712834287       40.3707089921  TIP3      3260            0.0000000000
     28496      3420  TIP3      H2             23.0936838858       27.3789885896       39.5956740274  TIP3      3260            0.0000000000
     28497      3421  TIP3      OH2            27.8033577082       33.0824380985       39.1379676538  TIP3      3261            0.0000000000
     28498      3421  TIP3      H1             27.8378700254       32.5627058815       39.9566264640  TIP3      3261            0.0000000000
     28499      3421  TIP3      H2             28.4950061686       32.6578645344       38.5997583965  TIP3      3261            0.0000000000
     28500      3422  TIP3      OH2            32.7238447482       34.0454805736       38.9528530366  TIP3      3262            0.0000000000
     28501      3422  TIP3      H1             32.1875586742       34.0980056001       39.7739850821  TIP3      3262            0.0000000000
     28502      3422  TIP3      H2             32.6945856749       33.0815944492       38.7515469276  TIP3      3262            0.0000000000
     28503      3423  TIP3      OH2            28.1698261756       31.2294025863       41.3709292066  TIP3      3263            0.0000000000
     28504      3423  TIP3      H1             27.3893779711       30.7470488785       41.6861686316  TIP3      3263            0.0000000000
     28505      3423  TIP3      H2             28.7136458943       30.4986961842       41.0295614305  TIP3      3263            0.0000000000
     28506      3424  TIP3      OH2            29.2280143460       29.2771263787       39.3505844932  TIP3      3264            0.0000000000
     28507      3424  TIP3      H1             29.0729199731       29.3165418465       38.3835259186  TIP3      3264            0.0000000000
     28508      3424  TIP3      H2             30.2066204521       29.3292523286       39.3826271651  TIP3      3264            0.0000000000
     28509      3425  TIP3      OH2            22.5627592229       33.4774659519       40.6753572600  TIP3      3265            0.0000000000
     28510      3425  TIP3      H1             22.9852048801       34.3578884462       40.7542692122  TIP3      3265            0.0000000000
     28511      3425  TIP3      H2             22.5399335551       33.3789539501       39.7100865381  TIP3      3265            0.0000000000
     28512      3426  TIP3      OH2            23.2779320521       22.2126089540       41.4642548094  TIP3      3266            0.0000000000
     28513      3426  TIP3      H1             23.6967611705       22.6639143508       40.7053422627  TIP3      3266            0.0000000000
     28514      3426  TIP3      H2             23.1990703415       22.9721307680       42.0629248348  TIP3      3266            0.0000000000
     28515      3427  TIP3      OH2            24.5167868548       23.8336355806       39.7165876117  TIP3      3267            0.0000000000
     28516      3427  TIP3      H1             24.9889122908       23.1405616600       39.2064533680  TIP3      3267            0.0000000000
     28517      3427  TIP3      H2             25.1763682476       24.0111937609       40.4240285699  TIP3      3267            0.0000000000
     28518      3428  TIP3      OH2           -23.4235271351      -25.1300701602      -35.4706191527  TIP3      3268            0.0000000000
     28519      3428  TIP3      H1            -23.3776274167      -24.1804741320      -35.7104706489  TIP3      3268            0.0000000000
     28520      3428  TIP3      H2            -23.8706006016      -25.4816837899      -36.2698586708  TIP3      3268            0.0000000000
     28521      3429  TIP3      OH2           -23.9381482542      -26.3835860050      -32.0431038614  TIP3      3269            0.0000000000
     28522      3429  TIP3      H1            -23.8457307962      -26.8182364938      -31.1612155253  TIP3      3269            0.0000000000
     28523      3429  TIP3      H2            -23.4440236517      -27.0137692590      -32.5962456802  TIP3      3269            0.0000000000
     28524      3430  TIP3      OH2           -31.6986598810      -26.3018865000      -30.8133559687  TIP3      3270            0.0000000000
     28525      3430  TIP3      H1            -31.9948617593      -26.6701399737      -29.9640591227  TIP3      3270            0.0000000000
     28526      3430  TIP3      H2            -31.6562739793      -25.3476314704      -30.6332448961  TIP3      3270            0.0000000000
     28527      3431  TIP3      OH2           -20.6469013946      -23.2918948032      -33.9042370547  TIP3      3271            0.0000000000
     28528      3431  TIP3      H1            -20.5976984010      -23.9849815136      -33.2259601676  TIP3      3271            0.0000000000
     28529      3431  TIP3      H2            -20.7318672295      -22.4873533294      -33.3805631961  TIP3      3271            0.0000000000
     28530      3432  TIP3      OH2           -31.9931218356      -22.5275390399      -32.3195709733  TIP3      3272            0.0000000000
     28531      3432  TIP3      H1            -31.4623712656      -23.3071905300      -32.5673823439  TIP3      3272            0.0000000000
     28532      3432  TIP3      H2            -31.3039986293      -21.8455353114      -32.1807031925  TIP3      3272            0.0000000000
     28533      3433  TIP3      OH2           -34.8349091670      -28.0326636955      -36.1754478995  TIP3      3273            0.0000000000
     28534      3433  TIP3      H1            -34.0260388072      -27.5703808092      -36.5062526387  TIP3      3273            0.0000000000
     28535      3433  TIP3      H2            -35.4924392764      -27.5431029881      -36.7029367234  TIP3      3273            0.0000000000
     28536      3434  TIP3      OH2           -33.4515283224      -25.8795390315      -34.0543943371  TIP3      3274            0.0000000000
     28537      3434  TIP3      H1            -33.4724293736      -26.8711139374      -34.0403276389  TIP3      3274            0.0000000000
     28538      3434  TIP3      H2            -33.6261725302      -25.6638701330      -34.9951930153  TIP3      3274            0.0000000000
     28539      3435  TIP3      OH2           -23.1490921759      -18.2787364511      -32.5586566644  TIP3      3275            0.0000000000
     28540      3435  TIP3      H1            -22.9156431915      -18.3954790190      -33.5052691194  TIP3      3275            0.0000000000
     28541      3435  TIP3      H2            -22.9684803587      -19.1940494547      -32.2701835949  TIP3      3275            0.0000000000
     28542      3436  TIP3      OH2           -25.6632992692      -23.1882983887      -31.5355261396  TIP3      3276            0.0000000000
     28543      3436  TIP3      H1            -25.1489804099      -22.5995407851      -32.1061975273  TIP3      3276            0.0000000000
     28544      3436  TIP3      H2            -25.0782974719      -23.1419833356      -30.7509302528  TIP3      3276            0.0000000000
     28545      3437  TIP3      OH2           -17.5337726064      -31.7149959369      -31.7918377145  TIP3      3277            0.0000000000
     28546      3437  TIP3      H1            -17.0354112533      -31.7195043083      -30.9454228536  TIP3      3277            0.0000000000
     28547      3437  TIP3      H2            -16.7982103775      -31.7336897218      -32.4193242000  TIP3      3277            0.0000000000
     28548      3438  TIP3      OH2           -22.6926498695      -29.3228175044      -31.5004323488  TIP3      3278            0.0000000000
     28549      3438  TIP3      H1            -22.5225513332      -30.2757678085      -31.3683209633  TIP3      3278            0.0000000000
     28550      3438  TIP3      H2            -22.6008302991      -29.2687194538      -32.4669121654  TIP3      3278            0.0000000000
     28551      3439  TIP3      OH2           -30.0328161483      -30.8048307668      -34.4049191409  TIP3      3279            0.0000000000
     28552      3439  TIP3      H1            -29.6132090397      -30.0717841272      -34.9034614754  TIP3      3279            0.0000000000
     28553      3439  TIP3      H2            -29.2492238773      -31.2993517026      -34.0965339036  TIP3      3279            0.0000000000
     28554      3440  TIP3      OH2           -22.0216788572      -30.7218916566      -35.7215789314  TIP3      3280            0.0000000000
     28555      3440  TIP3      H1            -21.4707391389      -31.1719401499      -35.0460910224  TIP3      3280            0.0000000000
     28556      3440  TIP3      H2            -21.4117213854      -30.0626778638      -36.0912057477  TIP3      3280            0.0000000000
     28557      3441  TIP3      OH2           -33.2662421048      -28.5290170388      -33.5731785803  TIP3      3281            0.0000000000
     28558      3441  TIP3      H1            -32.6373368755      -28.9102117812      -32.9306404646  TIP3      3281            0.0000000000
     28559      3441  TIP3      H2            -32.8374180095      -28.7257507213      -34.4325297389  TIP3      3281            0.0000000000
     28560      3442  TIP3      OH2           -27.5992377333      -27.1839554495      -34.3348869964  TIP3      3282            0.0000000000
     28561      3442  TIP3      H1            -27.0913582912      -27.8685216209      -33.8530336256  TIP3      3282            0.0000000000
     28562      3442  TIP3      H2            -28.1017758052      -27.7704529242      -34.9426158247  TIP3      3282            0.0000000000
     28563      3443  TIP3      OH2           -16.9077211427      -30.3606103344      -28.8212752362  TIP3      3283            0.0000000000
     28564      3443  TIP3      H1            -17.5895039345      -30.1143093942      -29.4726832600  TIP3      3283            0.0000000000
     28565      3443  TIP3      H2            -17.4272652708      -30.8964098016      -28.1955715539  TIP3      3283            0.0000000000
     28566      3444  TIP3      OH2           -30.1518377349      -31.1668202391      -29.1302061721  TIP3      3284            0.0000000000
     28567      3444  TIP3      H1            -30.0926254895      -31.5087840246      -30.0501774726  TIP3      3284            0.0000000000
     28568      3444  TIP3      H2            -31.1028549634      -31.3536096326      -28.9690828674  TIP3      3284            0.0000000000
     28569      3445  TIP3      OH2           -23.6827609906      -22.5659831549      -36.7127529174  TIP3      3285            0.0000000000
     28570      3445  TIP3      H1            -23.8644143580      -22.7232725098      -37.6663831653  TIP3      3285            0.0000000000
     28571      3445  TIP3      H2            -23.9928327476      -21.6470543412      -36.6023579741  TIP3      3285            0.0000000000
     28572      3446  TIP3      OH2           -28.0772886599      -23.8746762901      -30.0849435280  TIP3      3286            0.0000000000
     28573      3446  TIP3      H1            -28.7476148923      -23.1979423016      -29.8100183443  TIP3      3286            0.0000000000
     28574      3446  TIP3      H2            -27.5408390517      -23.3336535763      -30.6892853481  TIP3      3286            0.0000000000
     28575      3447  TIP3      OH2           -20.3800557362      -31.2908588087      -33.6253405955  TIP3      3287            0.0000000000
     28576      3447  TIP3      H1            -20.3077644273      -32.0692780783      -33.0345018841  TIP3      3287            0.0000000000
     28577      3447  TIP3      H2            -19.4318113608      -31.1372123817      -33.7265113096  TIP3      3287            0.0000000000
     28578      3448  TIP3      OH2           -31.4835813213      -30.0764245525      -32.2210591361  TIP3      3288            0.0000000000
     28579      3448  TIP3      H1            -30.7242530284      -29.5547850368      -31.8691031024  TIP3      3288            0.0000000000
     28580      3448  TIP3      H2            -31.0445827109      -30.4890595946      -33.0084872316  TIP3      3288            0.0000000000
     28581      3449  TIP3      OH2           -29.9933196798      -22.2712789713      -29.3922485434  TIP3      3289            0.0000000000
     28582      3449  TIP3      H1            -30.0681838815      -21.5032539994      -29.9917354295  TIP3      3289            0.0000000000
     28583      3449  TIP3      H2            -30.8238556747      -22.2325806755      -28.8701815318  TIP3      3289            0.0000000000
     28584      3450  TIP3      OH2           -33.9260555498      -22.5613287535      -38.4567849097  TIP3      3290            0.0000000000
     28585      3450  TIP3      H1            -34.6973699478      -22.1054209132      -38.8378552077  TIP3      3290            0.0000000000
     28586      3450  TIP3      H2            -33.7687097295      -22.1046511932      -37.6041687798  TIP3      3290            0.0000000000
     28587      3451  TIP3      OH2           -20.0579302419      -21.0275328694      -31.5678921904  TIP3      3291            0.0000000000
     28588      3451  TIP3      H1            -21.0313987794      -20.9781271698      -31.5281646825  TIP3      3291            0.0000000000
     28589      3451  TIP3      H2            -19.8833914701      -20.3439097121      -32.2297862195  TIP3      3291            0.0000000000
     28590      3452  TIP3      OH2           -19.5210477390      -32.1481369771      -29.9738400337  TIP3      3292            0.0000000000
     28591      3452  TIP3      H1            -20.2279429706      -32.1607171972      -30.6445092087  TIP3      3292            0.0000000000
     28592      3452  TIP3      H2            -18.7539427727      -32.2347540061      -30.5901018394  TIP3      3292            0.0000000000
     28593      3453  TIP3      OH2           -26.2164942142      -34.4372103301      -31.9917057234  TIP3      3293            0.0000000000
     28594      3453  TIP3      H1            -26.0784082744      -35.1933231380      -32.5663971839  TIP3      3293            0.0000000000
     28595      3453  TIP3      H2            -26.7974581774      -33.9089112535      -32.5847982568  TIP3      3293            0.0000000000
     28596      3454  TIP3      OH2           -21.9254711772      -19.3767533695      -34.7465709956  TIP3      3294            0.0000000000
     28597      3454  TIP3      H1            -21.6085406304      -19.9706196085      -35.4433829251  TIP3      3294            0.0000000000
     28598      3454  TIP3      H2            -21.4804915675      -18.5321945788      -35.0074337131  TIP3      3294            0.0000000000
     28599      3455  TIP3      OH2           -20.4074139610      -21.5665668152      -36.6072273525  TIP3      3295            0.0000000000
     28600      3455  TIP3      H1            -20.5661265654      -22.1759390883      -37.3586817653  TIP3      3295            0.0000000000
     28601      3455  TIP3      H2            -20.5222175575      -22.1876807885      -35.8680401685  TIP3      3295            0.0000000000
     28602      3456  TIP3      OH2           -19.0999989318      -22.8522307861      -28.1126562272  TIP3      3296            0.0000000000
     28603      3456  TIP3      H1            -19.0253527555      -23.6350222987      -28.6959132807  TIP3      3296            0.0000000000
     28604      3456  TIP3      H2            -18.8324490889      -22.1467755369      -28.7376467168  TIP3      3296            0.0000000000
     28605      3457  TIP3      OH2           -24.4443101461      -25.6844674895      -37.9787747920  TIP3      3297            0.0000000000
     28606      3457  TIP3      H1            -25.1689665861      -25.1057321231      -38.3197797451  TIP3      3297            0.0000000000
     28607      3457  TIP3      H2            -23.7424260557      -25.6167298438      -38.6604254560  TIP3      3297            0.0000000000
     28608      3458  TIP3      OH2           -24.5306015290      -26.7923261647      -40.9085024146  TIP3      3298            0.0000000000
     28609      3458  TIP3      H1            -23.7288451059      -26.5161109102      -40.4105410617  TIP3      3298            0.0000000000
     28610      3458  TIP3      H2            -24.2277318263      -27.6251085198      -41.3000583073  TIP3      3298            0.0000000000
     28611      3459  TIP3      OH2           -17.0425950384      -26.4717114526      -29.8692259969  TIP3      3299            0.0000000000
     28612      3459  TIP3      H1            -17.6462376077      -25.7377133750      -30.1394134912  TIP3      3299            0.0000000000
     28613      3459  TIP3      H2            -16.3247470833      -26.3807377787      -30.5209056892  TIP3      3299            0.0000000000
     28614      3460  TIP3      OH2           -20.8231980092      -25.8700954387      -37.1577159768  TIP3      3300            0.0000000000
     28615      3460  TIP3      H1            -21.4696275207      -25.5821289400      -36.4903480408  TIP3      3300            0.0000000000
     28616      3460  TIP3      H2            -20.1318567079      -26.2952182157      -36.6054218913  TIP3      3300            0.0000000000
     28617      3461  TIP3      OH2           -21.0467594174      -27.1665949467      -28.5380964181  TIP3      3301            0.0000000000
     28618      3461  TIP3      H1            -21.3124804055      -26.5378656603      -27.8443253324  TIP3      3301            0.0000000000
     28619      3461  TIP3      H2            -21.8283303005      -27.1440024405      -29.1292994287  TIP3      3301            0.0000000000
     28620      3462  TIP3      OH2           -29.4220461336      -25.2197334806      -35.3018816638  TIP3      3302            0.0000000000
     28621      3462  TIP3      H1            -29.8895694107      -25.4743779022      -36.1086738371  TIP3      3302            0.0000000000
     28622      3462  TIP3      H2            -28.7710100068      -25.9338345773      -35.1692175071  TIP3      3302            0.0000000000
     28623      3463  TIP3      OH2           -28.2059869448      -21.8755325524      -32.8544536236  TIP3      3303            0.0000000000
     28624      3463  TIP3      H1            -28.2645945042      -21.8767809940      -33.8340118647  TIP3      3303            0.0000000000
     28625      3463  TIP3      H2            -27.2680464669      -21.9822230702      -32.6416976270  TIP3      3303            0.0000000000
     28626      3464  TIP3      OH2           -28.8977807334      -25.9729819221      -31.8019201441  TIP3      3304            0.0000000000
     28627      3464  TIP3      H1            -29.5865004683      -25.8520820881      -32.4967317080  TIP3      3304            0.0000000000
     28628      3464  TIP3      H2            -29.1557795166      -25.2339566320      -31.2210259804  TIP3      3304            0.0000000000
     28629      3465  TIP3      OH2           -22.6823964467      -20.6328118510      -31.1187721633  TIP3      3305            0.0000000000
     28630      3465  TIP3      H1            -22.8081609099      -19.8655640949      -30.5307829568  TIP3      3305            0.0000000000
     28631      3465  TIP3      H2            -22.8741435503      -21.3757836446      -30.4978591547  TIP3      3305            0.0000000000
     28632      3466  TIP3      OH2           -28.4908490876      -21.9213128890      -27.1455427481  TIP3      3306            0.0000000000
     28633      3466  TIP3      H1            -29.1426346814      -21.4519121879      -26.5756728111  TIP3      3306            0.0000000000
     28634      3466  TIP3      H2            -29.0661224100      -22.1730462404      -27.9087974866  TIP3      3306            0.0000000000
     28635      3467  TIP3      OH2           -22.2664426571      -26.1033411281      -39.4721229837  TIP3      3307            0.0000000000
     28636      3467  TIP3      H1            -21.6511157860      -26.0423477039      -38.7039991845  TIP3      3307            0.0000000000
     28637      3467  TIP3      H2            -21.7210435244      -25.7097718832      -40.1898475524  TIP3      3307            0.0000000000
     28638      3468  TIP3      OH2           -31.1039154926      -25.8246903537      -27.5315821937  TIP3      3308            0.0000000000
     28639      3468  TIP3      H1            -31.0930162509      -24.9827703009      -27.0465370950  TIP3      3308            0.0000000000
     28640      3468  TIP3      H2            -32.0563831134      -25.8896895335      -27.7226216194  TIP3      3308            0.0000000000
     28641      3469  TIP3      OH2           -24.5375084635      -19.2647641975      -36.0402050372  TIP3      3309            0.0000000000
     28642      3469  TIP3      H1            -24.1078930813      -19.3606862665      -35.1850268184  TIP3      3309            0.0000000000
     28643      3469  TIP3      H2            -24.3003552588      -18.3376679690      -36.2642433315  TIP3      3309            0.0000000000
     28644      3470  TIP3      OH2           -29.9801521500      -20.1764993471      -25.7686261334  TIP3      3310            0.0000000000
     28645      3470  TIP3      H1            -29.8647076951      -19.6388162873      -26.5820485248  TIP3      3310            0.0000000000
     28646      3470  TIP3      H2            -30.8962052800      -20.5154334601      -25.8562546068  TIP3      3310            0.0000000000
     28647      3471  TIP3      OH2           -18.0176216738      -34.7112418499      -39.1728867992  TIP3      3311            0.0000000000
     28648      3471  TIP3      H1            -18.7699251226      -34.6990444303      -39.7982997617  TIP3      3311            0.0000000000
     28649      3471  TIP3      H2            -17.7583907613      -33.7824690679      -39.2864298028  TIP3      3311            0.0000000000
     28650      3472  TIP3      OH2           -30.3984758646      -26.2857104444      -38.4065733666  TIP3      3312            0.0000000000
     28651      3472  TIP3      H1            -30.9258589780      -25.4552022804      -38.5033864186  TIP3      3312            0.0000000000
     28652      3472  TIP3      H2            -31.1087548280      -26.8088323734      -38.0005608839  TIP3      3312            0.0000000000
     28653      3473  TIP3      OH2           -17.2319540740      -20.5125158792      -41.4086502802  TIP3      3313            0.0000000000
     28654      3473  TIP3      H1            -16.7457281508      -19.8031101937      -40.9500338979  TIP3      3313            0.0000000000
     28655      3473  TIP3      H2            -16.5515517773      -21.2201858607      -41.4235681325  TIP3      3313            0.0000000000
     28656      3474  TIP3      OH2           -34.0654553142      -23.6472251872      -28.4498319011  TIP3      3314            0.0000000000
     28657      3474  TIP3      H1            -34.2716855789      -23.2914379819      -29.3255756982  TIP3      3314            0.0000000000
     28658      3474  TIP3      H2            -34.9118764263      -24.0879045769      -28.2416192487  TIP3      3314            0.0000000000
     28659      3475  TIP3      OH2           -34.1020129228      -20.6891334603      -32.9166893783  TIP3      3315            0.0000000000
     28660      3475  TIP3      H1            -33.5123339668      -21.3412692873      -32.4830215487  TIP3      3315            0.0000000000
     28661      3475  TIP3      H2            -34.8371124032      -20.6322862993      -32.2688840563  TIP3      3315            0.0000000000
     28662      3476  TIP3      OH2           -16.6234373217      -19.8112464260      -26.6867723189  TIP3      3316            0.0000000000
     28663      3476  TIP3      H1            -16.7475522766      -20.7524031149      -26.4587789022  TIP3      3316            0.0000000000
     28664      3476  TIP3      H2            -17.4683564876      -19.4396297187      -26.3474513947  TIP3      3316            0.0000000000
     28665      3477  TIP3      OH2           -26.0579119444      -20.3809700257      -27.3543593198  TIP3      3317            0.0000000000
     28666      3477  TIP3      H1            -25.7133608517      -20.2110386233      -26.4606556413  TIP3      3317            0.0000000000
     28667      3477  TIP3      H2            -26.9661171418      -20.7228094496      -27.1562391806  TIP3      3317            0.0000000000
     28668      3478  TIP3      OH2           -25.5756698954      -16.7965971322      -38.1834562438  TIP3      3318            0.0000000000
     28669      3478  TIP3      H1            -24.9212895508      -16.6014677056      -38.8786270276  TIP3      3318            0.0000000000
     28670      3478  TIP3      H2            -25.0802216881      -16.4950925707      -37.3866387851  TIP3      3318            0.0000000000
     28671      3479  TIP3      OH2           -30.9570689686      -17.8897934510      -36.4003769442  TIP3      3319            0.0000000000
     28672      3479  TIP3      H1            -31.0695731287      -18.4055848502      -35.5530291335  TIP3      3319            0.0000000000
     28673      3479  TIP3      H2            -31.7629575466      -18.1154840230      -36.8960334932  TIP3      3319            0.0000000000
     28674      3480  TIP3      OH2           -21.5853831083      -17.6691615597      -41.0131178320  TIP3      3320            0.0000000000
     28675      3480  TIP3      H1            -21.3200344863      -18.5857116944      -41.1914064182  TIP3      3320            0.0000000000
     28676      3480  TIP3      H2            -21.6311038930      -17.7176419004      -40.0259911419  TIP3      3320            0.0000000000
     28677      3481  TIP3      OH2           -21.9950980006      -17.8666615597      -38.3860240996  TIP3      3321            0.0000000000
     28678      3481  TIP3      H1            -22.3511370700      -17.3500746016      -37.6120490010  TIP3      3321            0.0000000000
     28679      3481  TIP3      H2            -21.9393927254      -18.7154892605      -37.9230189892  TIP3      3321            0.0000000000
     28680      3482  TIP3      OH2           -19.1204627159      -28.6618201616      -26.3855784635  TIP3      3322            0.0000000000
     28681      3482  TIP3      H1            -19.9761644889      -28.2093027209      -26.4130501808  TIP3      3322            0.0000000000
     28682      3482  TIP3      H2            -19.3365460890      -29.4742816065      -25.9119679151  TIP3      3322            0.0000000000
     28683      3483  TIP3      OH2           -32.0108039123      -22.1251393680      -27.6715055287  TIP3      3323            0.0000000000
     28684      3483  TIP3      H1            -32.1218134250      -22.3513037309      -26.7308686533  TIP3      3323            0.0000000000
     28685      3483  TIP3      H2            -32.7980917381      -22.5848545870      -28.0561532442  TIP3      3323            0.0000000000
     28686      3484  TIP3      OH2           -29.5302211990      -32.8419951561      -31.2560159343  TIP3      3324            0.0000000000
     28687      3484  TIP3      H1            -30.4829428573      -33.0053148951      -31.2117711794  TIP3      3324            0.0000000000
     28688      3484  TIP3      H2            -29.3145505142      -33.3282804378      -32.0771109863  TIP3      3324            0.0000000000
     28689      3485  TIP3      OH2           -24.5667473927      -33.8311773158      -28.0543764348  TIP3      3325            0.0000000000
     28690      3485  TIP3      H1            -24.5788788036      -34.3241152566      -27.2227324343  TIP3      3325            0.0000000000
     28691      3485  TIP3      H2            -25.4175064611      -34.1009014141      -28.4534625146  TIP3      3325            0.0000000000
     28692      3486  TIP3      OH2           -21.3926436564      -30.0281095085      -27.8604266381  TIP3      3326            0.0000000000
     28693      3486  TIP3      H1            -22.1246670084      -30.1501768684      -27.1982824647  TIP3      3326            0.0000000000
     28694      3486  TIP3      H2            -21.5058087114      -29.1131138777      -28.1600458398  TIP3      3326            0.0000000000
     28695      3487  TIP3      OH2           -21.0105408602      -24.9642232120      -41.5158184997  TIP3      3327            0.0000000000
     28696      3487  TIP3      H1            -21.0231739765      -25.1460406994      -42.4700739812  TIP3      3327            0.0000000000
     28697      3487  TIP3      H2            -20.2144777929      -24.4106025185      -41.4284948323  TIP3      3327            0.0000000000
     28698      3488  TIP3      OH2           -25.0427959684      -31.0450239494      -40.8867162149  TIP3      3328            0.0000000000
     28699      3488  TIP3      H1            -24.6623027586      -31.4848760458      -40.1054154957  TIP3      3328            0.0000000000
     28700      3488  TIP3      H2            -25.9897600975      -31.2598466664      -40.8341023256  TIP3      3328            0.0000000000
     28701      3489  TIP3      OH2           -29.7312896510      -28.4995475229      -30.9467174436  TIP3      3329            0.0000000000
     28702      3489  TIP3      H1            -30.3493521576      -28.6333083095      -30.2131307680  TIP3      3329            0.0000000000
     28703      3489  TIP3      H2            -30.0375183983      -27.6231132474      -31.2423180867  TIP3      3329            0.0000000000
     28704      3490  TIP3      OH2           -29.1055722980      -28.7833276587      -35.8939895867  TIP3      3330            0.0000000000
     28705      3490  TIP3      H1            -30.0356987300      -28.4792956647      -35.8344533477  TIP3      3330            0.0000000000
     28706      3490  TIP3      H2            -29.1021403518      -29.0234850213      -36.8474397173  TIP3      3330            0.0000000000
     28707      3491  TIP3      OH2           -23.8399200232      -28.1835630623      -37.3230508916  TIP3      3331            0.0000000000
     28708      3491  TIP3      H1            -24.0645641390      -27.2567451886      -37.5791483742  TIP3      3331            0.0000000000
     28709      3491  TIP3      H2            -23.1044825785      -28.3853894016      -37.9492446145  TIP3      3331            0.0000000000
     28710      3492  TIP3      OH2           -24.8146156957      -27.6680829676      -25.9460438205  TIP3      3332            0.0000000000
     28711      3492  TIP3      H1            -25.0466389454      -27.8637084167      -25.0265555112  TIP3      3332            0.0000000000
     28712      3492  TIP3      H2            -23.9142832641      -27.3687780731      -25.7503276966  TIP3      3332            0.0000000000
     28713      3493  TIP3      OH2           -23.0702393705      -28.5027994698      -34.0386129325  TIP3      3333            0.0000000000
     28714      3493  TIP3      H1            -23.0875064803      -27.7474545632      -34.6588769478  TIP3      3333            0.0000000000
     28715      3493  TIP3      H2            -22.9625458424      -29.2222389685      -34.6994502703  TIP3      3333            0.0000000000
     28716      3494  TIP3      OH2           -31.7654124061      -28.8330977670      -29.1082114775  TIP3      3334            0.0000000000
     28717      3494  TIP3      H1            -31.0028282541      -28.3443870483      -28.7386230221  TIP3      3334            0.0000000000
     28718      3494  TIP3      H2            -31.4259195859      -29.7360538829      -29.2210109052  TIP3      3334            0.0000000000
     28719      3495  TIP3      OH2           -28.1231972426      -31.0446869021      -41.5490632021  TIP3      3335            0.0000000000
     28720      3495  TIP3      H1            -28.7439466959      -31.6075521280      -41.0304497270  TIP3      3335            0.0000000000
     28721      3495  TIP3      H2            -28.5137660059      -30.1699035001      -41.4867625968  TIP3      3335            0.0000000000
     28722      3496  TIP3      OH2           -35.3950201364      -32.6459241067      -34.7150278380  TIP3      3336            0.0000000000
     28723      3496  TIP3      H1            -34.6579533607      -32.3115806232      -34.1471008751  TIP3      3336            0.0000000000
     28724      3496  TIP3      H2            -35.0026757942      -32.6035997630      -35.6188948538  TIP3      3336            0.0000000000
     28725      3497  TIP3      OH2           -33.7782599371      -30.8272595622      -39.1080243214  TIP3      3337            0.0000000000
     28726      3497  TIP3      H1            -33.1606762603      -31.0033657500      -39.8419651163  TIP3      3337            0.0000000000
     28727      3497  TIP3      H2            -34.5929299914      -30.6435480231      -39.6219272817  TIP3      3337            0.0000000000
     28728      3498  TIP3      OH2           -23.6209866713      -27.6567033151      -29.7303682632  TIP3      3338            0.0000000000
     28729      3498  TIP3      H1            -23.1661019535      -28.3875063429      -30.2103837051  TIP3      3338            0.0000000000
     28730      3498  TIP3      H2            -24.2958672183      -28.1325091122      -29.2083057744  TIP3      3338            0.0000000000
     28731      3499  TIP3      OH2           -26.1916481750      -30.4610797255      -34.7978308447  TIP3      3339            0.0000000000
     28732      3499  TIP3      H1            -26.8961894500      -31.1461626278      -34.7909974069  TIP3      3339            0.0000000000
     28733      3499  TIP3      H2            -25.4529302712      -30.9885968820      -34.4510325900  TIP3      3339            0.0000000000
     28734      3500  TIP3      OH2           -31.8028120936      -28.9588467071      -36.1814268031  TIP3      3340            0.0000000000
     28735      3500  TIP3      H1            -32.4816664619      -28.7894724090      -36.8557295792  TIP3      3340            0.0000000000
     28736      3500  TIP3      H2            -31.3884908193      -29.7767580487      -36.4952164692  TIP3      3340            0.0000000000
     28737      3501  TIP3      OH2           -29.2994165133      -29.3056731517      -38.5187478462  TIP3      3341            0.0000000000
     28738      3501  TIP3      H1            -28.3638470371      -29.5737270170      -38.5070965316  TIP3      3341            0.0000000000
     28739      3501  TIP3      H2            -29.2504536827      -28.4715072996      -39.0128905752  TIP3      3341            0.0000000000
     28740      3502  TIP3      OH2           -22.4425761459      -32.1546336009      -31.5674916889  TIP3      3342            0.0000000000
     28741      3502  TIP3      H1            -23.1283877350      -32.6928336184      -31.1646452411  TIP3      3342            0.0000000000
     28742      3502  TIP3      H2            -22.8105790830      -32.0135819138      -32.4675373034  TIP3      3342            0.0000000000
     28743      3503  TIP3      OH2           -29.8803612741      -27.6500629309      -41.3260161595  TIP3      3343            0.0000000000
     28744      3503  TIP3      H1            -30.1689748191      -28.5489187696      -41.1149615431  TIP3      3343            0.0000000000
     28745      3503  TIP3      H2            -29.0725399165      -27.8029815296      -41.8713855226  TIP3      3343            0.0000000000
     28746      3504  TIP3      OH2           -19.5397286154      -16.1133646335      -25.2215866132  TIP3      3344            0.0000000000
     28747      3504  TIP3      H1            -19.1200937698      -15.7833561875      -26.0412693670  TIP3      3344            0.0000000000
     28748      3504  TIP3      H2            -19.0398967635      -15.5225236652      -24.6288343039  TIP3      3344            0.0000000000
     28749      3505  TIP3      OH2           -31.5928417571      -23.6858002343      -25.4339469871  TIP3      3345            0.0000000000
     28750      3505  TIP3      H1            -31.0024492109      -23.5736914252      -24.6496402266  TIP3      3345            0.0000000000
     28751      3505  TIP3      H2            -32.4250033618      -23.9004636830      -25.0016309728  TIP3      3345            0.0000000000
     28752      3506  TIP3      OH2           -25.7508166940      -28.4522890280      -32.8188350546  TIP3      3346            0.0000000000
     28753      3506  TIP3      H1            -24.9501386416      -28.4772633407      -33.3708529358  TIP3      3346            0.0000000000
     28754      3506  TIP3      H2            -25.9081849870      -29.4157763831      -32.7263205340  TIP3      3346            0.0000000000
     28755      3507  TIP3      OH2           -30.6731502192      -32.3036314106      -36.7876436265  TIP3      3347            0.0000000000
     28756      3507  TIP3      H1            -30.9570086800      -32.0424490298      -35.8969822521  TIP3      3347            0.0000000000
     28757      3507  TIP3      H2            -29.7629135168      -32.5753398297      -36.5940257403  TIP3      3347            0.0000000000
     28758      3508  TIP3      OH2           -26.2968476781      -30.4096119256      -31.0042511042  TIP3      3348            0.0000000000
     28759      3508  TIP3      H1            -26.8987243206      -31.1546325467      -31.0184731504  TIP3      3348            0.0000000000
     28760      3508  TIP3      H2            -25.5997796271      -30.7015693228      -30.4019576259  TIP3      3348            0.0000000000
     28761      3509  TIP3      OH2           -26.3649484745      -23.9740818299      -38.7627233962  TIP3      3349            0.0000000000
     28762      3509  TIP3      H1            -27.1473763926      -24.4220331730      -39.1535615192  TIP3      3349            0.0000000000
     28763      3509  TIP3      H2            -26.7354936493      -23.6165279648      -37.9281300859  TIP3      3349            0.0000000000
     28764      3510  TIP3      OH2           -19.0660332089      -24.7179806552      -30.1640185687  TIP3      3350            0.0000000000
     28765      3510  TIP3      H1            -18.6712236429      -24.0991107615      -30.8209773935  TIP3      3350            0.0000000000
     28766      3510  TIP3      H2            -19.9071505068      -24.9270831876      -30.6263334326  TIP3      3350            0.0000000000
     28767      3511  TIP3      OH2           -22.3802159818      -30.5771725535      -40.9539505439  TIP3      3351            0.0000000000
     28768      3511  TIP3      H1            -23.3455424716      -30.4780953434      -40.9989663752  TIP3      3351            0.0000000000
     28769      3511  TIP3      H2            -22.1890070500      -30.1688572186      -40.0909772960  TIP3      3351            0.0000000000
     28770      3512  TIP3      OH2           -25.2547833367      -23.3472006954      -27.8180584574  TIP3      3352            0.0000000000
     28771      3512  TIP3      H1            -25.2022557757      -23.8593726884      -26.9966964233  TIP3      3352            0.0000000000
     28772      3512  TIP3      H2            -25.7560859861      -22.5687228745      -27.5382615052  TIP3      3352            0.0000000000
     28773      3513  TIP3      OH2           -21.8376531902      -28.8921080153      -38.9193491454  TIP3      3353            0.0000000000
     28774      3513  TIP3      H1            -21.2309652148      -29.0804123263      -38.1799308454  TIP3      3353            0.0000000000
     28775      3513  TIP3      H2            -21.2782802265      -28.3628995116      -39.4972514134  TIP3      3353            0.0000000000
     28776      3514  TIP3      OH2           -31.0168236808      -24.9784172996      -33.2055716856  TIP3      3354            0.0000000000
     28777      3514  TIP3      H1            -30.7309439232      -24.7064340922      -34.1033986093  TIP3      3354            0.0000000000
     28778      3514  TIP3      H2            -31.9241080271      -25.3175663126      -33.3849028152  TIP3      3354            0.0000000000
     28779      3515  TIP3      OH2           -24.2428539375      -22.4379289801      -39.3597533058  TIP3      3355            0.0000000000
     28780      3515  TIP3      H1            -24.7348720303      -21.5894659646      -39.4289229161  TIP3      3355            0.0000000000
     28781      3515  TIP3      H2            -24.9688735959      -23.1019616412      -39.3425867472  TIP3      3355            0.0000000000
     28782      3516  TIP3      OH2           -33.8625992807      -26.7025813485      -27.8909985863  TIP3      3356            0.0000000000
     28783      3516  TIP3      H1            -33.7522759027      -26.6406808758      -26.9150481688  TIP3      3356            0.0000000000
     28784      3516  TIP3      H2            -34.7991529930      -26.4213788627      -28.0001842950  TIP3      3356            0.0000000000
     28785      3517  TIP3      OH2           -27.4477378445      -26.4494347952      -25.9178399567  TIP3      3357            0.0000000000
     28786      3517  TIP3      H1            -27.4756069553      -27.2585148829      -26.4425726850  TIP3      3357            0.0000000000
     28787      3517  TIP3      H2            -26.5713596507      -26.4953283318      -25.5129397361  TIP3      3357            0.0000000000
     28788      3518  TIP3      OH2           -22.4253266968      -21.0592149070      -27.4246643130  TIP3      3358            0.0000000000
     28789      3518  TIP3      H1            -23.2811045113      -20.6968700642      -27.6660989765  TIP3      3358            0.0000000000
     28790      3518  TIP3      H2            -22.1896248095      -20.5325340294      -26.6399740463  TIP3      3358            0.0000000000
     28791      3519  TIP3      OH2           -17.2849795028      -28.7909855196      -38.8657907416  TIP3      3359            0.0000000000
     28792      3519  TIP3      H1            -17.6977449291      -29.1722348285      -39.6729295568  TIP3      3359            0.0000000000
     28793      3519  TIP3      H2            -17.1601229637      -27.8675694722      -39.2117735807  TIP3      3359            0.0000000000
     28794      3520  TIP3      OH2           -16.7034475303      -22.5250087319      -26.6628100191  TIP3      3360            0.0000000000
     28795      3520  TIP3      H1            -17.6494018182      -22.6991173355      -26.8468278298  TIP3      3360            0.0000000000
     28796      3520  TIP3      H2            -16.3108880016      -22.6970314191      -27.5402737467  TIP3      3360            0.0000000000
     28797      3521  TIP3      OH2           -18.6361648764      -20.1576959568      -39.0424518705  TIP3      3361            0.0000000000
     28798      3521  TIP3      H1            -19.0758044158      -20.9183977109      -38.6383507946  TIP3      3361            0.0000000000
     28799      3521  TIP3      H2            -18.1927561705      -20.5197917638      -39.8392801606  TIP3      3361            0.0000000000
     28800      3522  TIP3      OH2           -21.1593278523      -25.1154230869      -31.8307092354  TIP3      3362            0.0000000000
     28801      3522  TIP3      H1            -22.1044936540      -25.1726687337      -32.0375384851  TIP3      3362            0.0000000000
     28802      3522  TIP3      H2            -20.7868773827      -25.8510724894      -32.3628623407  TIP3      3362            0.0000000000
     28803      3523  TIP3      OH2           -28.7290248534      -21.2917392516      -35.5216656513  TIP3      3363            0.0000000000
     28804      3523  TIP3      H1            -28.1490713839      -20.5312055083      -35.3786290471  TIP3      3363            0.0000000000
     28805      3523  TIP3      H2            -29.5633380831      -20.8317747519      -35.7362779976  TIP3      3363            0.0000000000
     28806      3524  TIP3      OH2           -33.5030859806      -26.2218073077      -41.4548826159  TIP3      3364            0.0000000000
     28807      3524  TIP3      H1            -33.2770646980      -26.9282148183      -40.8235086235  TIP3      3364            0.0000000000
     28808      3524  TIP3      H2            -34.1585167960      -25.7282152509      -40.9324017539  TIP3      3364            0.0000000000
     28809      3525  TIP3      OH2           -27.3775653586      -23.5117984147      -36.0263237910  TIP3      3365            0.0000000000
     28810      3525  TIP3      H1            -27.8202211842      -22.6343640535      -36.0224828454  TIP3      3365            0.0000000000
     28811      3525  TIP3      H2            -28.0381493928      -24.0246751475      -35.5385422025  TIP3      3365            0.0000000000
     28812      3526  TIP3      OH2           -27.1658398970      -20.0898815306      -29.8548468132  TIP3      3366            0.0000000000
     28813      3526  TIP3      H1            -27.0200788912      -19.1459094305      -29.9324176289  TIP3      3366            0.0000000000
     28814      3526  TIP3      H2            -26.8877794638      -20.3131613021      -28.9527719628  TIP3      3366            0.0000000000
     28815      3527  TIP3      OH2           -28.3695974826      -18.2078373936      -36.6914533481  TIP3      3367            0.0000000000
     28816      3527  TIP3      H1            -29.3453615972      -18.1496251879      -36.5801721683  TIP3      3367            0.0000000000
     28817      3527  TIP3      H2            -28.1095299600      -17.2868739261      -36.4628065127  TIP3      3367            0.0000000000
     28818      3528  TIP3      OH2           -23.5615652884      -22.8796778706      -29.9037008156  TIP3      3368            0.0000000000
     28819      3528  TIP3      H1            -24.0217160411      -23.1211666353      -29.0570764396  TIP3      3368            0.0000000000
     28820      3528  TIP3      H2            -22.8110658396      -23.4883651892      -29.9191458695  TIP3      3368            0.0000000000
     28821      3529  TIP3      OH2           -21.0842337850      -21.9965676533      -40.7089853879  TIP3      3369            0.0000000000
     28822      3529  TIP3      H1            -20.9515768529      -22.6616539417      -39.9955342064  TIP3      3369            0.0000000000
     28823      3529  TIP3      H2            -21.9627453267      -22.2658630733      -41.0267150049  TIP3      3369            0.0000000000
     28824      3530  TIP3      OH2           -20.3927630347      -18.4127749110      -27.9785070446  TIP3      3370            0.0000000000
     28825      3530  TIP3      H1            -21.1759501142      -18.7912519195      -28.3987920104  TIP3      3370            0.0000000000
     28826      3530  TIP3      H2            -20.2361105043      -17.6552561418      -28.5764446639  TIP3      3370            0.0000000000
     28827      3531  TIP3      OH2           -16.4941805497      -17.7781762236      -40.7846760428  TIP3      3371            0.0000000000
     28828      3531  TIP3      H1            -15.7833508268      -17.2076850755      -41.1340707626  TIP3      3371            0.0000000000
     28829      3531  TIP3      H2            -17.0775201301      -17.0944130166      -40.3694054049  TIP3      3371            0.0000000000
     28830      3532  TIP3      OH2           -32.6823331610      -31.6112215123      -28.4382220019  TIP3      3372            0.0000000000
     28831      3532  TIP3      H1            -33.3225618470      -32.3341623603      -28.6011214165  TIP3      3372            0.0000000000
     28832      3532  TIP3      H2            -32.2930324040      -31.9636896998      -27.6275781393  TIP3      3372            0.0000000000
     28833      3533  TIP3      OH2           -20.1806522596      -23.6070377458      -38.6333714019  TIP3      3373            0.0000000000
     28834      3533  TIP3      H1            -20.2844387689      -24.4732122356      -38.1815227753  TIP3      3373            0.0000000000
     28835      3533  TIP3      H2            -19.2231444175      -23.6338918790      -38.8531880115  TIP3      3373            0.0000000000
     28836      3534  TIP3      OH2           -33.2875238909      -20.0642811440      -30.2264420559  TIP3      3374            0.0000000000
     28837      3534  TIP3      H1            -32.3642717115      -20.1272581209      -30.5459416992  TIP3      3374            0.0000000000
     28838      3534  TIP3      H2            -33.1456334581      -19.7939158648      -29.3189179047  TIP3      3374            0.0000000000
     28839      3535  TIP3      OH2           -27.9965864435      -21.3763428870      -40.2631003227  TIP3      3375            0.0000000000
     28840      3535  TIP3      H1            -27.0589763640      -21.5538223840      -40.0859584755  TIP3      3375            0.0000000000
     28841      3535  TIP3      H2            -28.0429360250      -20.4516103750      -39.9143533245  TIP3      3375            0.0000000000
     28842      3536  TIP3      OH2           -31.8424880608      -23.9606349677      -39.5034795608  TIP3      3376            0.0000000000
     28843      3536  TIP3      H1            -32.6669091795      -23.8580614279      -38.9649435111  TIP3      3376            0.0000000000
     28844      3536  TIP3      H2            -31.6573464843      -23.0203432218      -39.7158494688  TIP3      3376            0.0000000000
     28845      3537  TIP3      OH2           -24.0755861345      -31.2106144165      -28.7193312563  TIP3      3377            0.0000000000
     28846      3537  TIP3      H1            -23.1289986594      -31.1322776053      -28.9075342370  TIP3      3377            0.0000000000
     28847      3537  TIP3      H2            -24.1106291549      -32.1398837909      -28.4069593438  TIP3      3377            0.0000000000
     28848      3538  TIP3      OH2           -23.2310857300      -31.9326217810      -38.1004839184  TIP3      3378            0.0000000000
     28849      3538  TIP3      H1            -22.4987975334      -32.2320276091      -38.6711128397  TIP3      3378            0.0000000000
     28850      3538  TIP3      H2            -22.7418831345      -31.5694833372      -37.3414703014  TIP3      3378            0.0000000000
     28851      3539  TIP3      OH2           -25.3465654635      -19.8343065681      -39.4301505848  TIP3      3379            0.0000000000
     28852      3539  TIP3      H1            -26.1629819785      -19.4156263791      -39.0727608437  TIP3      3379            0.0000000000
     28853      3539  TIP3      H2            -24.7357300415      -19.0783349533      -39.4957901985  TIP3      3379            0.0000000000
     28854      3540  TIP3      OH2           -26.0272232587      -30.1218473526      -37.5416923643  TIP3      3380            0.0000000000
     28855      3540  TIP3      H1            -25.2663142204      -29.5005690538      -37.5705043903  TIP3      3380            0.0000000000
     28856      3540  TIP3      H2            -26.2187380579      -30.1257332338      -36.5800807765  TIP3      3380            0.0000000000
     28857      3541  TIP3      OH2           -25.6990057839      -29.0326028896      -28.4058192934  TIP3      3381            0.0000000000
     28858      3541  TIP3      H1            -25.4897044029      -28.6895533364      -27.5050526477  TIP3      3381            0.0000000000
     28859      3541  TIP3      H2            -25.2162153428      -29.8968109514      -28.4027577273  TIP3      3381            0.0000000000
     28860      3542  TIP3      OH2           -25.3445396894      -33.3066579421      -36.7712945456  TIP3      3382            0.0000000000
     28861      3542  TIP3      H1            -25.6183268521      -32.7966389148      -35.9943798469  TIP3      3382            0.0000000000
     28862      3542  TIP3      H2            -24.4620986190      -32.9387313189      -36.9988815087  TIP3      3382            0.0000000000
     28863      3543  TIP3      OH2           -27.8397029816      -18.8957126977      -39.1708064122  TIP3      3383            0.0000000000
     28864      3543  TIP3      H1            -27.8049847768      -18.0395250761      -39.6434793918  TIP3      3383            0.0000000000
     28865      3543  TIP3      H2            -28.0827850868      -18.6223566969      -38.2469298496  TIP3      3383            0.0000000000
     28866      3544  TIP3      OH2           -29.4445802569      -32.1330699378      -39.5536830727  TIP3      3384            0.0000000000
     28867      3544  TIP3      H1            -29.7632291964      -31.5400399662      -38.8466638361  TIP3      3384            0.0000000000
     28868      3544  TIP3      H2            -28.5185946493      -32.2703783033      -39.2496560813  TIP3      3384            0.0000000000
     28869      3545  TIP3      OH2           -19.1600637488      -31.2959526495      -27.4505299819  TIP3      3385            0.0000000000
     28870      3545  TIP3      H1            -19.8513708283      -30.5916790610      -27.4567768460  TIP3      3385            0.0000000000
     28871      3545  TIP3      H2            -19.2824768989      -31.5994728401      -28.3806585560  TIP3      3385            0.0000000000
     28872      3546  TIP3      OH2           -20.5179642574      -27.2847938474      -33.3448056828  TIP3      3386            0.0000000000
     28873      3546  TIP3      H1            -21.1623759106      -28.0045933279      -33.3614290101  TIP3      3386            0.0000000000
     28874      3546  TIP3      H2            -19.7385135113      -27.7530163232      -32.9615292948  TIP3      3386            0.0000000000
     28875      3547  TIP3      OH2           -30.8720064861      -21.6836707069      -40.8946378798  TIP3      3387            0.0000000000
     28876      3547  TIP3      H1            -30.1261013792      -21.2780329915      -40.4253759809  TIP3      3387            0.0000000000
     28877      3547  TIP3      H2            -30.3395947905      -22.2984518346      -41.4546588608  TIP3      3387            0.0000000000
     28878      3548  TIP3      OH2           -32.6427260093      -29.0490416336      -41.6254369371  TIP3      3388            0.0000000000
     28879      3548  TIP3      H1            -32.2937681029      -28.6227248068      -42.4344713650  TIP3      3388            0.0000000000
     28880      3548  TIP3      H2            -32.6367162754      -29.9985091813      -41.8697544096  TIP3      3388            0.0000000000
     28881      3549  TIP3      OH2           -19.4804665218      -17.8732485774      -31.5692764098  TIP3      3389            0.0000000000
     28882      3549  TIP3      H1            -19.2756370651      -17.2887915242      -32.3400862865  TIP3      3389            0.0000000000
     28883      3549  TIP3      H2            -18.6233585349      -18.2994090575      -31.4106434192  TIP3      3389            0.0000000000
     28884      3550  TIP3      OH2           -32.4907734949      -33.9946690263      -32.8566139361  TIP3      3390            0.0000000000
     28885      3550  TIP3      H1            -33.4223788695      -34.2598310654      -32.7059689529  TIP3      3390            0.0000000000
     28886      3550  TIP3      H2            -32.0831772817      -34.7861916466      -32.4354893128  TIP3      3390            0.0000000000
     28887      3551  TIP3      OH2           -32.8603681845      -20.5626634529      -36.7682495375  TIP3      3391            0.0000000000
     28888      3551  TIP3      H1            -33.4830236086      -19.8272318669      -36.7849304426  TIP3      3391            0.0000000000
     28889      3551  TIP3      H2            -32.3906478367      -20.3923221478      -37.5988774642  TIP3      3391            0.0000000000
     28890      3552  TIP3      OH2           -33.8151131759      -17.9052468002      -25.8079055128  TIP3      3392            0.0000000000
     28891      3552  TIP3      H1            -33.5011392407      -17.9756658770      -24.8875760792  TIP3      3392            0.0000000000
     28892      3552  TIP3      H2            -34.5365602967      -18.5554830160      -25.8222857807  TIP3      3392            0.0000000000
     28893      3553  TIP3      OH2           -29.1218328260      -18.6609815863      -23.7178071624  TIP3      3393            0.0000000000
     28894      3553  TIP3      H1            -28.2608994612      -19.0199292454      -23.4416652053  TIP3      3393            0.0000000000
     28895      3553  TIP3      H2            -29.3621899110      -19.2481584257      -24.4712681815  TIP3      3393            0.0000000000
     28896      3554  TIP3      OH2           -23.8945669932      -19.3646679109      -41.8164963998  TIP3      3394            0.0000000000
     28897      3554  TIP3      H1            -24.4683628365      -19.6307119761      -42.5688501625  TIP3      3394            0.0000000000
     28898      3554  TIP3      H2            -23.7441322282      -20.2348960527      -41.4232379970  TIP3      3394            0.0000000000
     28899      3555  TIP3      OH2           -22.8613005739      -19.7625600183      -25.0498726806  TIP3      3395            0.0000000000
     28900      3555  TIP3      H1            -22.9958602550      -20.6731386222      -24.6831799372  TIP3      3395            0.0000000000
     28901      3555  TIP3      H2            -22.0384206081      -19.5132893056      -24.5942531386  TIP3      3395            0.0000000000
     28902      3556  TIP3      OH2           -20.3528258852      -19.8622874663      -42.3540924787  TIP3      3396            0.0000000000
     28903      3556  TIP3      H1            -20.5667351425      -20.5066107251      -41.6385985852  TIP3      3396            0.0000000000
     28904      3556  TIP3      H2            -20.3061813645      -20.4849717152      -43.1068624412  TIP3      3396            0.0000000000
     28905      3557  TIP3      OH2           -34.3767777199      -23.6844343804      -24.2676232680  TIP3      3397            0.0000000000
     28906      3557  TIP3      H1            -34.6327785737      -24.5928572497      -24.5032885629  TIP3      3397            0.0000000000
     28907      3557  TIP3      H2            -34.5203872803      -23.2008391384      -25.0982786985  TIP3      3397            0.0000000000
     28908      3558  TIP3      OH2           -29.2978390752      -23.5165493092      -41.9499321038  TIP3      3398            0.0000000000
     28909      3558  TIP3      H1            -28.4512096233      -23.4989484485      -41.4637369241  TIP3      3398            0.0000000000
     28910      3558  TIP3      H2            -29.0323048809      -23.8466216211      -42.8329393874  TIP3      3398            0.0000000000
     28911      3559  TIP3      OH2           -27.3028501821      -23.8204142908      -25.4481089013  TIP3      3399            0.0000000000
     28912      3559  TIP3      H1            -27.8023111553      -23.3310519730      -26.1359273358  TIP3      3399            0.0000000000
     28913      3559  TIP3      H2            -27.5306758729      -24.7601597481      -25.6415263272  TIP3      3399            0.0000000000
     28914      3560  TIP3      OH2           -21.4908747794      -23.7429188746      -27.2059483396  TIP3      3400            0.0000000000
     28915      3560  TIP3      H1            -20.6400943440      -23.3128199032      -27.4277586638  TIP3      3400            0.0000000000
     28916      3560  TIP3      H2            -22.0467317776      -22.9523836410      -27.2334578431  TIP3      3400            0.0000000000
     28917      3561  TIP3      OH2           -33.3944739565      -26.6090957653      -25.1480848272  TIP3      3401            0.0000000000
     28918      3561  TIP3      H1            -32.7805872808      -27.3453677600      -25.0577618713  TIP3      3401            0.0000000000
     28919      3561  TIP3      H2            -33.1425923461      -26.0820582354      -24.3733090048  TIP3      3401            0.0000000000
     28920      3562  TIP3      OH2           -28.3684415390      -25.2662392097      -39.9664256349  TIP3      3402            0.0000000000
     28921      3562  TIP3      H1            -29.0628290588      -25.6756744742      -39.3962947718  TIP3      3402            0.0000000000
     28922      3562  TIP3      H2            -28.0844036059      -26.0014168115      -40.5475024086  TIP3      3402            0.0000000000
     28923      3563  TIP3      OH2           -29.3022774881      -27.6180521657      -28.3571749591  TIP3      3403            0.0000000000
     28924      3563  TIP3      H1            -29.8177411249      -27.0587359875      -27.7389535337  TIP3      3403            0.0000000000
     28925      3563  TIP3      H2            -28.6571297910      -26.9422122407      -28.6370692594  TIP3      3403            0.0000000000
     28926      3564  TIP3      OH2           -27.2582700556      -27.0859380779      -41.9520166283  TIP3      3404            0.0000000000
     28927      3564  TIP3      H1            -26.9256359403      -26.7590301170      -42.8041346850  TIP3      3404            0.0000000000
     28928      3564  TIP3      H2            -26.4216885933      -27.0966409803      -41.4330107940  TIP3      3404            0.0000000000
     28929      3565  TIP3      OH2           -23.7846545235      -24.7787370574      -24.5146679362  TIP3      3405            0.0000000000
     28930      3565  TIP3      H1            -22.8329922908      -24.9749462508      -24.4841598441  TIP3      3405            0.0000000000
     28931      3565  TIP3      H2            -24.1438904048      -25.5217676678      -23.9925271669  TIP3      3405            0.0000000000
     28932      3566  TIP3      OH2           -18.3805719848      -24.1111292555       42.4861645491  TIP3      3406            0.0000000000
     28933      3566  TIP3      H1            -18.3738501193      -24.6160736885       41.6600479122  TIP3      3406            0.0000000000
     28934      3566  TIP3      H2            -17.4447935465      -24.1021924217       42.7293650350  TIP3      3406            0.0000000000
     28935      3567  TIP3      OH2           -28.8661278989      -29.8954985384      -26.9707926978  TIP3      3407            0.0000000000
     28936      3567  TIP3      H1            -29.1123438602      -30.5120918303      -27.6825710311  TIP3      3407            0.0000000000
     28937      3567  TIP3      H2            -29.1091448543      -29.0534573223      -27.4222526108  TIP3      3407            0.0000000000
     28938      3568  TIP3      OH2           -27.7575213647      -32.2324965162      -29.0291324997  TIP3      3408            0.0000000000
     28939      3568  TIP3      H1            -27.8920791944      -32.7237907788      -29.8664639418  TIP3      3408            0.0000000000
     28940      3568  TIP3      H2            -28.6607868256      -31.8510587459      -29.0082249674  TIP3      3408            0.0000000000
     28941      3569  TIP3      OH2           -26.9746210919      -26.0081140785      -28.8684236184  TIP3      3409            0.0000000000
     28942      3569  TIP3      H1            -26.1577022166      -25.7757871138      -28.3914397573  TIP3      3409            0.0000000000
     28943      3569  TIP3      H2            -27.3661404062      -25.1234165344      -29.0647106698  TIP3      3409            0.0000000000
     28944      3570  TIP3      OH2           -21.9618278780      -28.5124405405      -23.7466912768  TIP3      3410            0.0000000000
     28945      3570  TIP3      H1            -21.8241702761      -29.2691532661      -23.1572370030  TIP3      3410            0.0000000000
     28946      3570  TIP3      H2            -21.1001591593      -28.0514710532      -23.7072631067  TIP3      3410            0.0000000000
     28947      3571  TIP3      OH2           -21.1951970337      -25.9773464552      -25.5674899850  TIP3      3411            0.0000000000
     28948      3571  TIP3      H1            -21.2333941182      -25.1685575695      -26.1312416669  TIP3      3411            0.0000000000
     28949      3571  TIP3      H2            -20.2414913135      -26.1644895496      -25.4860291719  TIP3      3411            0.0000000000
     28950      3572  TIP3      OH2           -30.0914395958      -29.0500568650      -24.5041337860  TIP3      3412            0.0000000000
     28951      3572  TIP3      H1            -30.8443873667      -29.6584498990      -24.4177420129  TIP3      3412            0.0000000000
     28952      3572  TIP3      H2            -29.7414339515      -29.2343376534      -25.3929608963  TIP3      3412            0.0000000000
     28953      3573  TIP3      OH2           -27.2264166695      -34.8128516893      -28.7768481019  TIP3      3413            0.0000000000
     28954      3573  TIP3      H1            -27.2782528019      -33.8651391151      -28.9789019539  TIP3      3413            0.0000000000
     28955      3573  TIP3      H2            -28.1460812326      -35.0703760220      -28.9824641694  TIP3      3413            0.0000000000
     28956      3574  TIP3      OH2           -25.8570639793      -30.4073863345      -24.9369310325  TIP3      3414            0.0000000000
     28957      3574  TIP3      H1            -25.4819275824      -30.8115965409      -24.1256309725  TIP3      3414            0.0000000000
     28958      3574  TIP3      H2            -26.5610207878      -29.8613137553      -24.5494279531  TIP3      3414            0.0000000000
     28959      3575  TIP3      OH2           -22.9673630032      -30.4111025630      -25.8247557207  TIP3      3415            0.0000000000
     28960      3575  TIP3      H1            -23.8930017064      -30.1579621845      -25.6784423564  TIP3      3415            0.0000000000
     28961      3575  TIP3      H2            -22.8555015594      -31.2146629697      -25.2881183829  TIP3      3415            0.0000000000
     28962      3576  TIP3      OH2           -22.4073133479      -32.6984477078      -24.3058278361  TIP3      3416            0.0000000000
     28963      3576  TIP3      H1            -22.8427285784      -33.4719535242      -23.9056958296  TIP3      3416            0.0000000000
     28964      3576  TIP3      H2            -22.2139066144      -32.1530910213      -23.5231737496  TIP3      3416            0.0000000000
     28965      3577  TIP3      OH2           -31.7583429217      -31.4202688359      -24.6259101978  TIP3      3417            0.0000000000
     28966      3577  TIP3      H1            -31.8038479676      -32.3089317046      -25.0604918367  TIP3      3417            0.0000000000
     28967      3577  TIP3      H2            -32.4648033604      -31.5197388430      -23.9743590386  TIP3      3417            0.0000000000
     28968      3578  TIP3      OH2           -26.5829514457       35.2894313705      -26.0039974068  TIP3      3418            0.0000000000
     28969      3578  TIP3      H1            -26.7700253718       34.4987250007      -25.4473726944  TIP3      3418            0.0000000000
     28970      3578  TIP3      H2            -27.1425165464       35.0252374726      -26.7675817499  TIP3      3418            0.0000000000
     28971      3579  TIP3      OH2           -27.0900301336      -33.6254240556      -23.2333940862  TIP3      3419            0.0000000000
     28972      3579  TIP3      H1            -27.2418851874      -34.4618457753      -23.6995560388  TIP3      3419            0.0000000000
     28973      3579  TIP3      H2            -27.9699663298      -33.2221041405      -23.2789617693  TIP3      3419            0.0000000000
     28974      3580  TIP3      OH2           -27.5844079566      -16.4854302405      -40.2533773149  TIP3      3420            0.0000000000
     28975      3580  TIP3      H1            -26.9554312840      -16.4669796118      -39.4923986315  TIP3      3420            0.0000000000
     28976      3580  TIP3      H2            -28.1285183392      -15.7141273995      -40.0372871242  TIP3      3420            0.0000000000
     28977      3581  TIP3      OH2           -33.7359857762      -22.1518092753      -41.8335019100  TIP3      3421            0.0000000000
     28978      3581  TIP3      H1            -32.8084113934      -21.9839880059      -41.6176287246  TIP3      3421            0.0000000000
     28979      3581  TIP3      H2            -33.8505351220      -21.7708781725      -42.7218019657  TIP3      3421            0.0000000000
     28980      3582  TIP3      OH2           -34.2282097414      -16.7979836951      -36.4591891100  TIP3      3422            0.0000000000
     28981      3582  TIP3      H1            -34.6496493911      -17.5406354994      -36.8942750101  TIP3      3422            0.0000000000
     28982      3582  TIP3      H2            -34.8059930247      -16.6060484405      -35.6835893660  TIP3      3422            0.0000000000
     28983      3583  TIP3      OH2           -33.7822177162      -18.3697965035      -34.1155877344  TIP3      3423            0.0000000000
     28984      3583  TIP3      H1            -33.8156600627      -19.2619550520      -33.6982765933  TIP3      3423            0.0000000000
     28985      3583  TIP3      H2            -33.9921652617      -17.7864190327      -33.3614778696  TIP3      3423            0.0000000000
     28986      3584  TIP3      OH2           -16.5953910472      -17.4190288913      -31.3869362875  TIP3      3424            0.0000000000
     28987      3584  TIP3      H1            -16.2841415131      -17.2812735888      -30.4819953982  TIP3      3424            0.0000000000
     28988      3584  TIP3      H2            -17.0138968965      -16.5534527959      -31.5372598236  TIP3      3424            0.0000000000
     28989      3585  TIP3      OH2           -17.2659715450      -18.0426365648      -28.6584333964  TIP3      3425            0.0000000000
     28990      3585  TIP3      H1            -17.6088553173      -18.8707040525      -29.0662443642  TIP3      3425            0.0000000000
     28991      3585  TIP3      H2            -16.7270975119      -18.4157292610      -27.9377886889  TIP3      3425            0.0000000000
     28992      3586  TIP3      OH2           -18.9355680273      -22.1441343248      -23.5246958467  TIP3      3426            0.0000000000
     28993      3586  TIP3      H1            -19.6850292723      -22.0051106935      -24.1215742437  TIP3      3426            0.0000000000
     28994      3586  TIP3      H2            -18.3811028556      -21.3420541465      -23.6631563113  TIP3      3426            0.0000000000
     28995      3587  TIP3      OH2           -17.3698673786      -23.8412538260      -38.8934258672  TIP3      3427            0.0000000000
     28996      3587  TIP3      H1            -16.5415780485      -23.3782634321      -38.6394474482  TIP3      3427            0.0000000000
     28997      3587  TIP3      H2            -17.4946396640      -24.3926520521      -38.0863653950  TIP3      3427            0.0000000000
     28998      3588  TIP3      OH2           -17.3683864720      -25.4187547423      -36.7681909464  TIP3      3428            0.0000000000
     28999      3588  TIP3      H1            -17.8935585816      -26.0605919186      -36.2494548780  TIP3      3428            0.0000000000
     29000      3588  TIP3      H2            -16.6180545210      -25.2429407186      -36.1738930980  TIP3      3428            0.0000000000
     29001      3589  TIP3      OH2           -17.3100698576      -23.2542643951      -31.5540764032  TIP3      3429            0.0000000000
     29002      3589  TIP3      H1            -16.7278682565      -24.0167967143      -31.7758399247  TIP3      3429            0.0000000000
     29003      3589  TIP3      H2            -16.7886964312      -22.4860078953      -31.8653387299  TIP3      3429            0.0000000000
     29004      3590  TIP3      OH2           -18.5952648213      -20.3573442132      -29.2415290219  TIP3      3430            0.0000000000
     29005      3590  TIP3      H1            -19.3006342041      -20.0330087650      -28.6596343752  TIP3      3430            0.0000000000
     29006      3590  TIP3      H2            -19.0764448290      -20.5358176204      -30.0799844898  TIP3      3430            0.0000000000
     29007      3591  TIP3      OH2           -17.3497426939      -26.3328712480      -40.1729099570  TIP3      3431            0.0000000000
     29008      3591  TIP3      H1            -17.8466329853      -26.1266521102      -40.9718660954  TIP3      3431            0.0000000000
     29009      3591  TIP3      H2            -17.2249078653      -25.4690546245      -39.7318681005  TIP3      3431            0.0000000000
     29010      3592  TIP3      OH2           -18.9954955884      -29.0982301869      -41.2227706308  TIP3      3432            0.0000000000
     29011      3592  TIP3      H1            -18.3518259389      -28.7908692492      -41.8823540374  TIP3      3432            0.0000000000
     29012      3592  TIP3      H2            -19.1040272619      -30.0299706612      -41.5307679922  TIP3      3432            0.0000000000
     29013      3593  TIP3      OH2           -18.9277689766      -27.2647944054      -35.5674243467  TIP3      3433            0.0000000000
     29014      3593  TIP3      H1            -18.8378282315      -28.2055830381      -35.7831906740  TIP3      3433            0.0000000000
     29015      3593  TIP3      H2            -19.4221580772      -27.2973601286      -34.7234679424  TIP3      3433            0.0000000000
     29016      3594  TIP3      OH2           -34.3595823277      -25.9983493040      -31.6054320172  TIP3      3434            0.0000000000
     29017      3594  TIP3      H1            -34.1426039352      -25.7925215367      -32.5423011517  TIP3      3434            0.0000000000
     29018      3594  TIP3      H2            -33.4518673931      -26.1895731299      -31.3050655186  TIP3      3434            0.0000000000
     29019      3595  TIP3      OH2           -17.8200571955      -25.7151502332      -26.6931925952  TIP3      3435            0.0000000000
     29020      3595  TIP3      H1            -17.6021512613      -26.3989077538      -26.0154821419  TIP3      3435            0.0000000000
     29021      3595  TIP3      H2            -17.7887495323      -24.9326243055      -26.1016822466  TIP3      3435            0.0000000000
     29022      3596  TIP3      OH2           -16.6505920751      -27.4943751821      -25.1494815890  TIP3      3436            0.0000000000
     29023      3596  TIP3      H1            -17.2777567361      -27.5155705921      -24.3966353088  TIP3      3436            0.0000000000
     29024      3596  TIP3      H2            -16.2857612669      -28.4089987135      -25.1647940248  TIP3      3436            0.0000000000
     29025      3597  TIP3      OH2           -19.1546948033      -31.5709373016      -42.3658215987  TIP3      3437            0.0000000000
     29026      3597  TIP3      H1            -18.5819866798      -32.0421846938      -41.7223630902  TIP3      3437            0.0000000000
     29027      3597  TIP3      H2            -20.0227798544      -31.8799446167      -42.0135734159  TIP3      3437            0.0000000000
     29028      3598  TIP3      OH2           -19.7219845278      -29.4541579860      -37.1917778239  TIP3      3438            0.0000000000
     29029      3598  TIP3      H1            -19.4347778635      -30.3927386378      -37.1582320173  TIP3      3438            0.0000000000
     29030      3598  TIP3      H2            -19.1024282526      -29.1236096135      -37.8763034481  TIP3      3438            0.0000000000
     29031      3599  TIP3      OH2           -18.6369236578      -28.9682667250      -32.5409913284  TIP3      3439            0.0000000000
     29032      3599  TIP3      H1            -17.7673389315      -28.8918940424      -32.0789423973  TIP3      3439            0.0000000000
     29033      3599  TIP3      H2            -19.0436379180      -29.6785073811      -32.0217282446  TIP3      3439            0.0000000000
     29034      3600  TIP3      OH2           -18.8630130697      -28.5949231208      -29.7314323946  TIP3      3440            0.0000000000
     29035      3600  TIP3      H1            -19.6187618735      -28.0714342191      -29.3989966015  TIP3      3440            0.0000000000
     29036      3600  TIP3      H2            -18.2337998438      -27.9404357770      -30.1004867371  TIP3      3440            0.0000000000
     29037      3601  TIP3      OH2           -34.0333719624      -30.3307687663      -26.0183361385  TIP3      3441            0.0000000000
     29038      3601  TIP3      H1            -33.1940630152      -30.6573586552      -25.6427078529  TIP3      3441            0.0000000000
     29039      3601  TIP3      H2            -34.6955315301      -30.7847774301      -25.4644933510  TIP3      3441            0.0000000000
     29040      3602  TIP3      OH2           -16.7393203510      -33.3342156337      -23.5742808753  TIP3      3442            0.0000000000
     29041      3602  TIP3      H1            -16.1481637619      -33.9325096846      -23.0875873906  TIP3      3442            0.0000000000
     29042      3602  TIP3      H2            -16.2233123786      -33.1967842036      -24.3936038610  TIP3      3442            0.0000000000
     29043      3603  TIP3      OH2           -18.7056718742      -32.2819335026      -37.2773374456  TIP3      3443            0.0000000000
     29044      3603  TIP3      H1            -18.8305293432      -32.8446335899      -36.4890890238  TIP3      3443            0.0000000000
     29045      3603  TIP3      H2            -19.2046528884      -32.7601385162      -37.9690071491  TIP3      3443            0.0000000000
     29046      3604  TIP3      OH2           -33.5653716359      -31.5670155709      -33.0108338453  TIP3      3444            0.0000000000
     29047      3604  TIP3      H1            -33.0724609606      -32.4102199888      -32.8943410952  TIP3      3444            0.0000000000
     29048      3604  TIP3      H2            -32.9400216220      -30.9404846871      -32.6041654845  TIP3      3444            0.0000000000
     29049      3605  TIP3      OH2           -34.8319215888      -28.4889226138      -30.9438756217  TIP3      3445            0.0000000000
     29050      3605  TIP3      H1            -34.6357692663      -28.8599208086      -31.8298680962  TIP3      3445            0.0000000000
     29051      3605  TIP3      H2            -34.7734586104      -27.5203095760      -31.1387109492  TIP3      3445            0.0000000000
     29052      3606  TIP3      OH2           -16.9827938911      -31.8925074539      -25.8215393415  TIP3      3446            0.0000000000
     29053      3606  TIP3      H1            -17.8617839273      -31.8835275969      -25.3781960340  TIP3      3446            0.0000000000
     29054      3606  TIP3      H2            -17.0356942808      -32.6492208928      -26.4277229919  TIP3      3446            0.0000000000
     29055      3607  TIP3      OH2           -16.8941446042      -32.5184432502      -40.8592578276  TIP3      3447            0.0000000000
     29056      3607  TIP3      H1            -16.9931365354      -33.4065250460      -41.2479971210  TIP3      3447            0.0000000000
     29057      3607  TIP3      H2            -16.3054254463      -32.0859613212      -41.5040735088  TIP3      3447            0.0000000000
     29058      3608  TIP3      OH2           -34.6763972114      -32.6676179270      -37.3190360374  TIP3      3448            0.0000000000
     29059      3608  TIP3      H1            -35.4649205730      -32.1644185964      -37.6118397722  TIP3      3448            0.0000000000
     29060      3608  TIP3      H2            -34.0104915103      -32.2664903204      -37.9245098950  TIP3      3448            0.0000000000
     29061      3609  TIP3      OH2           -20.1867525732      -17.6053063623      -35.7269493328  TIP3      3449            0.0000000000
     29062      3609  TIP3      H1            -19.3807561842      -17.8356589150      -36.2317174918  TIP3      3449            0.0000000000
     29063      3609  TIP3      H2            -19.8905674474      -16.8501575498      -35.1904981223  TIP3      3449            0.0000000000
     29064      3610  TIP3      OH2            34.9385441664      -33.8022687783      -28.8750694447  TIP3      3450            0.0000000000
     29065      3610  TIP3      H1             34.1138154473      -34.3273298117      -28.8170830750  TIP3      3450            0.0000000000
     29066      3610  TIP3      H2             34.9741399546      -33.6040555936      -29.8378639552  TIP3      3450            0.0000000000
     29067      3611  TIP3      OH2           -32.4976102441      -20.7181686769      -24.9032167952  TIP3      3451            0.0000000000
     29068      3611  TIP3      H1            -32.9163669409      -20.2678112832      -25.6470294395  TIP3      3451            0.0000000000
     29069      3611  TIP3      H2            -32.5781420965      -20.0681096592      -24.1894413985  TIP3      3451            0.0000000000
     29070      3612  TIP3      OH2           -29.2865528782      -18.9331768318      -28.3135272821  TIP3      3452            0.0000000000
     29071      3612  TIP3      H1            -29.6389835857      -18.2441307815      -28.9187119543  TIP3      3452            0.0000000000
     29072      3612  TIP3      H2            -28.9846055626      -19.5900601711      -28.9684785025  TIP3      3452            0.0000000000
     29073      3613  TIP3      OH2           -25.4381042000      -17.6388591371      -25.8729306156  TIP3      3453            0.0000000000
     29074      3613  TIP3      H1            -25.4692843087      -18.1652844339      -25.0360506583  TIP3      3453            0.0000000000
     29075      3613  TIP3      H2            -24.5003081425      -17.3386761770      -25.8635489030  TIP3      3453            0.0000000000
     29076      3614  TIP3      OH2           -23.0384518086      -16.9678147732      -26.8235701087  TIP3      3454            0.0000000000
     29077      3614  TIP3      H1            -22.1365976005      -17.1621172627      -27.1101171886  TIP3      3454            0.0000000000
     29078      3614  TIP3      H2            -22.8425096429      -16.3907197447      -26.0486264287  TIP3      3454            0.0000000000
     29079      3615  TIP3      OH2           -19.1042567920      -34.3044559881      -28.0022867136  TIP3      3455            0.0000000000
     29080      3615  TIP3      H1            -19.1438663961      -33.6045534077      -28.6782201748  TIP3      3455            0.0000000000
     29081      3615  TIP3      H2            -18.1370705578      -34.5144029887      -28.0068044280  TIP3      3455            0.0000000000
     29082      3616  TIP3      OH2           -31.8956117955      -16.4910991171      -28.9958340690  TIP3      3456            0.0000000000
     29083      3616  TIP3      H1            -32.7539627685      -16.2359573883      -29.4055667741  TIP3      3456            0.0000000000
     29084      3616  TIP3      H2            -32.1002480002      -16.4372721847      -28.0586858174  TIP3      3456            0.0000000000
     29085      3617  TIP3      OH2           -29.4753354357      -16.4524721880      -30.1502910989  TIP3      3457            0.0000000000
     29086      3617  TIP3      H1            -30.3722807064      -16.4729608799      -29.7304412797  TIP3      3457            0.0000000000
     29087      3617  TIP3      H2            -29.6367875168      -15.8373486690      -30.8853344512  TIP3      3457            0.0000000000
     29088      3618  TIP3      OH2           -25.5442137895      -17.0156411554      -30.5871483978  TIP3      3458            0.0000000000
     29089      3618  TIP3      H1            -26.0666383795      -16.7712470168      -31.3747790462  TIP3      3458            0.0000000000
     29090      3618  TIP3      H2            -25.1746108503      -16.1497208258      -30.3444081174  TIP3      3458            0.0000000000
     29091      3619  TIP3      OH2           -22.7250346451      -18.3184983879      -29.8032153303  TIP3      3459            0.0000000000
     29092      3619  TIP3      H1            -23.0375532218      -18.1087645926      -30.7172711144  TIP3      3459            0.0000000000
     29093      3619  TIP3      H2            -22.1705219904      -17.5097113598      -29.6805602846  TIP3      3459            0.0000000000
     29094      3620  TIP3      OH2           -20.9917592342      -16.2459487923      -29.8049373932  TIP3      3460            0.0000000000
     29095      3620  TIP3      H1            -20.8230917150      -15.2771394723      -29.8708719068  TIP3      3460            0.0000000000
     29096      3620  TIP3      H2            -20.5043319303      -16.5735406084      -30.5976978438  TIP3      3460            0.0000000000
     29097      3621  TIP3      OH2           -32.7949354179      -17.4373924837      -31.6067666675  TIP3      3461            0.0000000000
     29098      3621  TIP3      H1            -33.4173166949      -17.8734208516      -31.0065215997  TIP3      3461            0.0000000000
     29099      3621  TIP3      H2            -32.0583447887      -18.0835753317      -31.5614314258  TIP3      3461            0.0000000000
     29100      3622  TIP3      OH2           -30.5371723455      -19.1054448538      -34.2008677201  TIP3      3462            0.0000000000
     29101      3622  TIP3      H1            -31.0161528575      -19.2590961379      -33.3556714271  TIP3      3462            0.0000000000
     29102      3622  TIP3      H2            -29.6478828757      -18.9329854333      -33.8719008569  TIP3      3462            0.0000000000
     29103      3623  TIP3      OH2           -27.9964321410      -18.4771496266      -32.6600714219  TIP3      3463            0.0000000000
     29104      3623  TIP3      H1            -28.0276237266      -19.3389716207      -32.1861745651  TIP3      3463            0.0000000000
     29105      3623  TIP3      H2            -28.8805981276      -18.1647314433      -32.3857671398  TIP3      3463            0.0000000000
     29106      3624  TIP3      OH2           -24.1862103072      -32.5918884867      -33.5594031257  TIP3      3464            0.0000000000
     29107      3624  TIP3      H1            -24.8808701550      -33.1408782500      -33.1680927069  TIP3      3464            0.0000000000
     29108      3624  TIP3      H2            -23.6086303229      -33.2775871350      -33.9517445336  TIP3      3464            0.0000000000
     29109      3625  TIP3      OH2           -19.7156712152      -33.8280042985      -32.9311388271  TIP3      3465            0.0000000000
     29110      3625  TIP3      H1            -19.0845428072      -33.9211394019      -33.6772905457  TIP3      3465            0.0000000000
     29111      3625  TIP3      H2            -20.4976258100      -34.2846414403      -33.2786903166  TIP3      3465            0.0000000000
     29112      3626  TIP3      OH2           -17.9042094574      -33.5703895247      -35.0308822491  TIP3      3466            0.0000000000
     29113      3626  TIP3      H1            -17.4207278920      -33.8625693861      -35.8223579602  TIP3      3466            0.0000000000
     29114      3626  TIP3      H2            -17.3385402287      -32.8041567629      -34.7731906528  TIP3      3466            0.0000000000
     29115      3627  TIP3      OH2           -32.6968265207      -34.6728929877      -35.9626819170  TIP3      3467            0.0000000000
     29116      3627  TIP3      H1            -33.5639116959      -35.1178085530      -36.0185011088  TIP3      3467            0.0000000000
     29117      3627  TIP3      H2            -32.7828699067      -34.3313408877      -35.0597741120  TIP3      3467            0.0000000000
     29118      3628  TIP3      OH2           -33.2684046809      -33.8381516724      -39.4520152239  TIP3      3468            0.0000000000
     29119      3628  TIP3      H1            -33.1865084022      -33.5519787763      -40.3777993852  TIP3      3468            0.0000000000
     29120      3628  TIP3      H2            -34.2457112515      -33.9140289983      -39.4489471202  TIP3      3468            0.0000000000
     29121      3629  TIP3      OH2           -27.8895369751      -34.8692825122      -36.8062037556  TIP3      3469            0.0000000000
     29122      3629  TIP3      H1            -27.0824955359      -34.7470070418      -37.3384331801  TIP3      3469            0.0000000000
     29123      3629  TIP3      H2            -27.7097081693      -34.2576040912      -36.0473118874  TIP3      3469            0.0000000000
     29124      3630  TIP3      OH2           -22.2846272716      -34.4123367089      -34.7406170136  TIP3      3470            0.0000000000
     29125      3630  TIP3      H1            -21.8814258751      -34.4661009385      -35.6254285942  TIP3      3470            0.0000000000
     29126      3630  TIP3      H2            -21.9525011552      -35.2458599215      -34.3505648126  TIP3      3470            0.0000000000
     29127      3631  TIP3      OH2           -21.3768001033      -34.7061550985      -37.5893863476  TIP3      3471            0.0000000000
     29128      3631  TIP3      H1            -21.1338940432      -34.2655309337      -38.4341610523  TIP3      3471            0.0000000000
     29129      3631  TIP3      H2            -20.8004980299      -35.5044515681      -37.6257346361  TIP3      3471            0.0000000000
     29130      3632  TIP3      OH2           -33.0210892777      -18.3578244804      -38.4387388787  TIP3      3472            0.0000000000
     29131      3632  TIP3      H1            -33.7152114903      -18.6990707600      -39.0267862552  TIP3      3472            0.0000000000
     29132      3632  TIP3      H2            -33.0610965882      -17.3963305244      -38.6476958963  TIP3      3472            0.0000000000
     29133      3633  TIP3      OH2           -31.7399064732      -31.9513661828      -41.2449741575  TIP3      3473            0.0000000000
     29134      3633  TIP3      H1            -32.0028602382      -32.7250242477      -41.7812550370  TIP3      3473            0.0000000000
     29135      3633  TIP3      H2            -31.1030977626      -32.3288438548      -40.6137621287  TIP3      3473            0.0000000000
     29136      3634  TIP3      OH2           -26.8503755102      -32.2337724211      -38.9099017447  TIP3      3474            0.0000000000
     29137      3634  TIP3      H1            -26.3269021447      -32.6133720070      -38.1643534325  TIP3      3474            0.0000000000
     29138      3634  TIP3      H2            -26.5988934868      -31.3029208675      -38.7439955213  TIP3      3474            0.0000000000
     29139      3635  TIP3      OH2           -24.1896285354      -16.8629380724      -40.5752360632  TIP3      3475            0.0000000000
     29140      3635  TIP3      H1            -23.2323231311      -16.9013467771      -40.3553283222  TIP3      3475            0.0000000000
     29141      3635  TIP3      H2            -24.2635894519      -17.7628155368      -40.9641748530  TIP3      3475            0.0000000000
     29142      3636  TIP3      OH2           -18.1993979249      -18.0660297191      -37.4796133970  TIP3      3476            0.0000000000
     29143      3636  TIP3      H1            -18.2157340794      -18.9254628123      -37.9637419746  TIP3      3476            0.0000000000
     29144      3636  TIP3      H2            -18.8321068998      -17.5698339021      -38.0380011571  TIP3      3476            0.0000000000
     29145      3637  TIP3      OH2           -32.3749960563      -33.7973232140      -25.8646845770  TIP3      3477            0.0000000000
     29146      3637  TIP3      H1            -33.1720069694      -34.3449600912      -25.9798138513  TIP3      3477            0.0000000000
     29147      3637  TIP3      H2            -31.6953009432      -34.4792710584      -25.7287947447  TIP3      3477            0.0000000000
     29148      3638  TIP3      OH2           -29.5002815652      -34.1276996224      -25.0201416240  TIP3      3478            0.0000000000
     29149      3638  TIP3      H1            -29.2595654277      -35.0706445915      -24.9659114640  TIP3      3478            0.0000000000
     29150      3638  TIP3      H2            -30.0773428719      -34.0424239425      -24.2468706815  TIP3      3478            0.0000000000
     29151      3639  TIP3      OH2           -32.4301652762      -17.6507047896      -41.5493380484  TIP3      3479            0.0000000000
     29152      3639  TIP3      H1            -32.6315523998      -16.9313252967      -40.9166279690  TIP3      3479            0.0000000000
     29153      3639  TIP3      H2            -31.8554686036      -18.2597354544      -41.0711521074  TIP3      3479            0.0000000000
     29154      3640  TIP3      OH2           -21.6564900824       34.5125395495      -25.2843497945  TIP3      3480            0.0000000000
     29155      3640  TIP3      H1            -22.5914138760       34.4074064316      -24.9971139971  TIP3      3480            0.0000000000
     29156      3640  TIP3      H2            -21.3007621449       34.7167211168      -24.3939585882  TIP3      3480            0.0000000000
     29157      3641  TIP3      OH2           -18.8000641995      -18.6077482130      -25.7152800091  TIP3      3481            0.0000000000
     29158      3641  TIP3      H1            -19.1214781745      -18.4725075570      -26.6306405040  TIP3      3481            0.0000000000
     29159      3641  TIP3      H2            -19.0042759012      -17.7134796566      -25.3524739758  TIP3      3481            0.0000000000
     29160      3642  TIP3      OH2            -4.0368902537      -24.9388950057      -35.5628020174  TIP3      3482            0.0000000000
     29161      3642  TIP3      H1             -4.4193768154      -24.0923657782      -35.8804682627  TIP3      3482            0.0000000000
     29162      3642  TIP3      H2             -4.8727622411      -25.4272933712      -35.4465048409  TIP3      3482            0.0000000000
     29163      3643  TIP3      OH2            -6.3259065810      -25.8740913039      -31.5690169027  TIP3      3483            0.0000000000
     29164      3643  TIP3      H1             -5.6454467162      -26.3813806991      -31.1015692898  TIP3      3483            0.0000000000
     29165      3643  TIP3      H2             -6.3845829377      -26.3094374466      -32.4375345040  TIP3      3483            0.0000000000
     29166      3644  TIP3      OH2           -13.3353219023      -26.2393253241      -30.8833069319  TIP3      3484            0.0000000000
     29167      3644  TIP3      H1            -13.3993095137      -26.8808569246      -30.1396154144  TIP3      3484            0.0000000000
     29168      3644  TIP3      H2            -12.7476269856      -25.5515066452      -30.5291709295  TIP3      3484            0.0000000000
     29169      3645  TIP3      OH2            -2.1090210463      -23.1070343929      -34.4265051338  TIP3      3485            0.0000000000
     29170      3645  TIP3      H1             -2.9645673500      -23.5838163579      -34.4330369003  TIP3      3485            0.0000000000
     29171      3645  TIP3      H2             -1.7178416816      -23.4448069997      -33.6037937059  TIP3      3485            0.0000000000
     29172      3646  TIP3      OH2           -12.2804728328      -21.6369789754      -32.1935238919  TIP3      3486            0.0000000000
     29173      3646  TIP3      H1            -12.5482148278      -22.5127675490      -32.5522524743  TIP3      3486            0.0000000000
     29174      3646  TIP3      H2            -11.3034694652      -21.7296158539      -32.2176417857  TIP3      3486            0.0000000000
     29175      3647  TIP3      OH2           -15.4637903969      -28.4004106303      -36.8593063787  TIP3      3487            0.0000000000
     29176      3647  TIP3      H1            -15.8294573877      -27.5330079474      -36.6313529017  TIP3      3487            0.0000000000
     29177      3647  TIP3      H2            -16.0889651660      -28.6744237513      -37.5594629336  TIP3      3487            0.0000000000
     29178      3648  TIP3      OH2           -15.2471409777      -25.7155500773      -34.6218363860  TIP3      3488            0.0000000000
     29179      3648  TIP3      H1            -14.7782129942      -26.5021133893      -34.2685589555  TIP3      3488            0.0000000000
     29180      3648  TIP3      H2            -14.5135463252      -25.1038334902      -34.7828585942  TIP3      3488            0.0000000000
     29181      3649  TIP3      OH2            -4.4744483927      -17.6487600711      -33.6560433938  TIP3      3489            0.0000000000
     29182      3649  TIP3      H1             -3.8577388530      -17.9961201101      -34.3317852228  TIP3      3489            0.0000000000
     29183      3649  TIP3      H2             -4.5474716807      -18.4298064057      -33.0848492743  TIP3      3489            0.0000000000
     29184      3650  TIP3      OH2            -7.4498779801      -23.1889779736      -31.8621818357  TIP3      3490            0.0000000000
     29185      3650  TIP3      H1             -7.1340048464      -24.0410479369      -32.2152068077  TIP3      3490            0.0000000000
     29186      3650  TIP3      H2             -6.7206398135      -22.9983522137      -31.2436010629  TIP3      3490            0.0000000000
     29187      3651  TIP3      OH2             1.4723001503      -32.1207155628      -31.5348904683  TIP3      3491            0.0000000000
     29188      3651  TIP3      H1              1.4981395033      -31.5738789335      -30.7181608922  TIP3      3491            0.0000000000
     29189      3651  TIP3      H2              2.4242608603      -32.2598096583      -31.6606111379  TIP3      3491            0.0000000000
     29190      3652  TIP3      OH2            -3.7322419594      -29.1716583158      -31.3193565912  TIP3      3492            0.0000000000
     29191      3652  TIP3      H1             -3.7787789623      -30.1209319193      -31.5419059393  TIP3      3492            0.0000000000
     29192      3652  TIP3      H2             -4.0522772729      -28.7416285128      -32.1329116390  TIP3      3492            0.0000000000
     29193      3653  TIP3      OH2           -10.6008135772      -30.9409256970      -34.7410108535  TIP3      3493            0.0000000000
     29194      3653  TIP3      H1            -10.5274804689      -30.0292391994      -35.1234746405  TIP3      3493            0.0000000000
     29195      3653  TIP3      H2            -11.4978834261      -31.1485497079      -35.0412027870  TIP3      3493            0.0000000000
     29196      3654  TIP3      OH2            -2.5989621135      -30.6587172861      -35.8636466289  TIP3      3494            0.0000000000
     29197      3654  TIP3      H1             -2.2004192925      -31.3787351532      -35.3377793134  TIP3      3494            0.0000000000
     29198      3654  TIP3      H2             -1.7997970744      -30.2840981312      -36.2846837178  TIP3      3494            0.0000000000
     29199      3655  TIP3      OH2           -13.9735960126      -27.8113368532      -33.4087264997  TIP3      3495            0.0000000000
     29200      3655  TIP3      H1            -13.4941273618      -28.3516669954      -32.7605230080  TIP3      3495            0.0000000000
     29201      3655  TIP3      H2            -13.9083446975      -28.3725199412      -34.2007942102  TIP3      3495            0.0000000000
     29202      3656  TIP3      OH2            -9.5403701179      -27.7426651356      -33.4859997299  TIP3      3496            0.0000000000
     29203      3656  TIP3      H1             -8.6557044615      -27.3827321630      -33.7136275130  TIP3      3496            0.0000000000
     29204      3656  TIP3      H2             -9.8484594654      -27.9438976998      -34.3874964430  TIP3      3496            0.0000000000
     29205      3657  TIP3      OH2             1.8525682151      -30.4043517105      -29.2359504283  TIP3      3497            0.0000000000
     29206      3657  TIP3      H1              1.2127475373      -29.6766751433      -29.3776899819  TIP3      3497            0.0000000000
     29207      3657  TIP3      H2              1.8486061840      -30.4301594047      -28.2655784814  TIP3      3497            0.0000000000
     29208      3658  TIP3      OH2           -11.7141676538      -32.3770672818      -30.4887547751  TIP3      3498            0.0000000000
     29209      3658  TIP3      H1            -12.2829911607      -31.8646166498      -31.0986389124  TIP3      3498            0.0000000000
     29210      3658  TIP3      H2            -12.3564370463      -32.8141514946      -29.9018668482  TIP3      3498            0.0000000000
     29211      3659  TIP3      OH2            -5.1111991883      -22.6316646852      -36.5408345764  TIP3      3499            0.0000000000
     29212      3659  TIP3      H1             -5.1829982212      -23.1366532794      -37.3681076997  TIP3      3499            0.0000000000
     29213      3659  TIP3      H2             -4.8920443780      -21.7423539550      -36.8335423726  TIP3      3499            0.0000000000
     29214      3660  TIP3      OH2            -9.3327747448      -24.5282238396      -30.2632613128  TIP3      3500            0.0000000000
     29215      3660  TIP3      H1            -10.0032921279      -23.8997738525      -29.9119815744  TIP3      3500            0.0000000000
     29216      3660  TIP3      H2             -8.7782781976      -23.9665581219      -30.8438410413  TIP3      3500            0.0000000000
     29217      3661  TIP3      OH2            -1.1173428287      -31.1679790793      -33.7353400457  TIP3      3501            0.0000000000
     29218      3661  TIP3      H1             -0.9805180200      -32.0735432072      -33.3606691868  TIP3      3501            0.0000000000
     29219      3661  TIP3      H2             -1.7748816006      -30.8165211140      -33.1069208861  TIP3      3501            0.0000000000
     29220      3662  TIP3      OH2           -11.9177060133      -30.1591898349      -32.3482904145  TIP3      3502            0.0000000000
     29221      3662  TIP3      H1            -11.4909451294      -29.3210038469      -32.0931461994  TIP3      3502            0.0000000000
     29222      3662  TIP3      H2            -11.2275998918      -30.5966610467      -32.8810474037  TIP3      3502            0.0000000000
     29223      3663  TIP3      OH2           -10.9339492406      -22.4806067897      -29.2667397854  TIP3      3503            0.0000000000
     29224      3663  TIP3      H1            -10.9218984843      -21.6632714235      -29.7824247301  TIP3      3503            0.0000000000
     29225      3663  TIP3      H2            -11.7975041175      -22.4581496290      -28.7991837044  TIP3      3503            0.0000000000
     29226      3664  TIP3      OH2           -14.9425759055      -22.6491394951      -38.4578265670  TIP3      3504            0.0000000000
     29227      3664  TIP3      H1            -14.9963088883      -22.1462232088      -39.2864526921  TIP3      3504            0.0000000000
     29228      3664  TIP3      H2            -14.8067144729      -21.9541326773      -37.7957061819  TIP3      3504            0.0000000000
     29229      3665  TIP3      OH2            -0.9205787367      -21.0814285106      -31.5753394670  TIP3      3505            0.0000000000
     29230      3665  TIP3      H1             -1.3520572288      -21.9463297914      -31.6878588819  TIP3      3505            0.0000000000
     29231      3665  TIP3      H2             -1.1734879193      -20.6117384932      -32.3698435189  TIP3      3505            0.0000000000
     29232      3666  TIP3      OH2            -1.2457886135      -32.7229781439      -30.3300832245  TIP3      3506            0.0000000000
     29233      3666  TIP3      H1             -2.0691343249      -32.3788594714      -30.7216885504  TIP3      3506            0.0000000000
     29234      3666  TIP3      H2             -0.8352333290      -33.0712412615      -31.1461444435  TIP3      3506            0.0000000000
     29235      3667  TIP3      OH2            -7.5550550844      -34.0714175835      -33.3773059055  TIP3      3507            0.0000000000
     29236      3667  TIP3      H1             -7.2623233759      -34.8307274736      -32.8356093929  TIP3      3507            0.0000000000
     29237      3667  TIP3      H2             -8.2344729400      -33.6928895187      -32.7874552855  TIP3      3507            0.0000000000
     29238      3668  TIP3      OH2            -3.1259023903      -19.1622184701      -35.6127202388  TIP3      3508            0.0000000000
     29239      3668  TIP3      H1             -2.7569326116      -20.0605369843      -35.7515757199  TIP3      3508            0.0000000000
     29240      3668  TIP3      H2             -2.2996764043      -18.6355991482      -35.7321420050  TIP3      3508            0.0000000000
     29241      3669  TIP3      OH2            -1.6261672436      -21.3649845715      -36.5032452523  TIP3      3509            0.0000000000
     29242      3669  TIP3      H1             -1.5930331348      -22.0600673918      -37.1841151595  TIP3      3509            0.0000000000
     29243      3669  TIP3      H2             -1.8156868383      -21.9213261718      -35.7109381071  TIP3      3509            0.0000000000
     29244      3670  TIP3      OH2            -0.3463603071      -22.5595573629      -27.9615728289  TIP3      3510            0.0000000000
     29245      3670  TIP3      H1             -0.5241821817      -23.3518697466      -28.4961152612  TIP3      3510            0.0000000000
     29246      3670  TIP3      H2              0.3934469021      -22.1636806075      -28.4697073322  TIP3      3510            0.0000000000
     29247      3671  TIP3      OH2            -5.7797746873      -25.6406562102      -38.2709242121  TIP3      3511            0.0000000000
     29248      3671  TIP3      H1             -6.6092161869      -25.1515273272      -38.1611324704  TIP3      3511            0.0000000000
     29249      3671  TIP3      H2             -5.6965473545      -25.6096407993      -39.2557918638  TIP3      3511            0.0000000000
     29250      3672  TIP3      OH2            -5.2010279951      -28.5779242865      -41.6849722506  TIP3      3512            0.0000000000
     29251      3672  TIP3      H1             -5.3027252500      -27.6132783123      -41.5810945091  TIP3      3512            0.0000000000
     29252      3672  TIP3      H2             -4.2778586506      -28.6866858671      -41.9866606251  TIP3      3512            0.0000000000
     29253      3673  TIP3      OH2             1.6366624232      -26.5291610521      -30.5271927732  TIP3      3513            0.0000000000
     29254      3673  TIP3      H1              0.9062585230      -25.9085936541      -30.2875245197  TIP3      3513            0.0000000000
     29255      3673  TIP3      H2              2.3116327169      -25.8550221826      -30.7898219886  TIP3      3513            0.0000000000
     29256      3674  TIP3      OH2            -1.6681219978      -25.2886975711      -36.9682355911  TIP3      3514            0.0000000000
     29257      3674  TIP3      H1             -2.4878790118      -25.2591533918      -36.4206537771  TIP3      3514            0.0000000000
     29258      3674  TIP3      H2             -1.1032389319      -25.9230049582      -36.4754613656  TIP3      3514            0.0000000000
     29259      3675  TIP3      OH2            -2.1848095727      -27.1007802158      -28.4594774880  TIP3      3515            0.0000000000
     29260      3675  TIP3      H1             -2.4190919378      -26.2114968451      -28.1605998585  TIP3      3515            0.0000000000
     29261      3675  TIP3      H2             -2.8189214077      -27.1793891808      -29.2021448697  TIP3      3515            0.0000000000
     29262      3676  TIP3      OH2           -10.7613879637      -24.9683028830      -35.4104228606  TIP3      3516            0.0000000000
     29263      3676  TIP3      H1            -10.9716630537      -25.3828858126      -36.2686831119  TIP3      3516            0.0000000000
     29264      3676  TIP3      H2             -9.8478083767      -25.2680271523      -35.2549697682  TIP3      3516            0.0000000000
     29265      3677  TIP3      OH2            -9.5455691526      -21.8089539307      -32.4819279269  TIP3      3517            0.0000000000
     29266      3677  TIP3      H1             -9.4369015325      -22.0260589570      -33.4229185110  TIP3      3517            0.0000000000
     29267      3677  TIP3      H2             -8.7034191987      -22.2076541032      -32.1416171698  TIP3      3517            0.0000000000
     29268      3678  TIP3      OH2           -10.7556342829      -25.9549578791      -31.8704467192  TIP3      3518            0.0000000000
     29269      3678  TIP3      H1            -10.3299702471      -26.2646676163      -32.6943760932  TIP3      3518            0.0000000000
     29270      3678  TIP3      H2            -10.0085373191      -25.5214258991      -31.3915309198  TIP3      3518            0.0000000000
     29271      3679  TIP3      OH2            -3.6032214315      -20.4792234584      -31.5197195630  TIP3      3519            0.0000000000
     29272      3679  TIP3      H1             -2.7567931009      -20.0194001769      -31.5989076590  TIP3      3519            0.0000000000
     29273      3679  TIP3      H2             -3.3450834532      -21.4286960421      -31.4797833801  TIP3      3519            0.0000000000
     29274      3680  TIP3      OH2            -9.0106728280      -21.9501921467      -26.9739703916  TIP3      3520            0.0000000000
     29275      3680  TIP3      H1             -9.6945457658      -21.4227688210      -26.4813073093  TIP3      3520            0.0000000000
     29276      3680  TIP3      H2             -9.5571650937      -22.3085049031      -27.6990061818  TIP3      3520            0.0000000000
     29277      3681  TIP3      OH2            -2.7906532896      -26.8473715152      -39.6397592676  TIP3      3521            0.0000000000
     29278      3681  TIP3      H1             -2.4320194748      -26.2016484737      -39.0148303836  TIP3      3521            0.0000000000
     29279      3681  TIP3      H2             -3.0777335567      -26.2538042332      -40.3583638868  TIP3      3521            0.0000000000
     29280      3682  TIP3      OH2           -12.5385712994      -25.2955567307      -28.3694392837  TIP3      3522            0.0000000000
     29281      3682  TIP3      H1            -12.2865206344      -24.6947659873      -27.6546479648  TIP3      3522            0.0000000000
     29282      3682  TIP3      H2            -13.4091527505      -25.6211091915      -28.0638292690  TIP3      3522            0.0000000000
     29283      3683  TIP3      OH2            -6.0606878929      -18.8977274265      -35.8684343160  TIP3      3523            0.0000000000
     29284      3683  TIP3      H1             -5.3175610696      -18.6920895965      -35.2748273522  TIP3      3523            0.0000000000
     29285      3683  TIP3      H2             -6.0943017826      -18.0953563591      -36.4326406793  TIP3      3523            0.0000000000
     29286      3684  TIP3      OH2           -10.8968843931      -20.2661692202      -26.2183787254  TIP3      3524            0.0000000000
     29287      3684  TIP3      H1            -11.0320015717      -19.8813846845      -27.1040564809  TIP3      3524            0.0000000000
     29288      3684  TIP3      H2            -11.7995488952      -20.3469207080      -25.8560665028  TIP3      3524            0.0000000000
     29289      3685  TIP3      OH2             0.2228062552      -34.8563149073      -40.7747141128  TIP3      3525            0.0000000000
     29290      3685  TIP3      H1              0.4467490728      -35.3267643720      -39.9572978777  TIP3      3525            0.0000000000
     29291      3685  TIP3      H2              0.4077196899      -33.9458829944      -40.4884211482  TIP3      3525            0.0000000000
     29292      3686  TIP3      OH2           -11.9258866363      -26.0970824522      -37.7681061916  TIP3      3526            0.0000000000
     29293      3686  TIP3      H1            -12.1757460826      -25.2619168027      -38.2253259565  TIP3      3526            0.0000000000
     29294      3686  TIP3      H2            -12.5964721303      -26.7148150429      -38.0863653734  TIP3      3526            0.0000000000
     29295      3687  TIP3      OH2             1.3688654430      -20.1734081326      -40.8289441830  TIP3      3527            0.0000000000
     29296      3687  TIP3      H1              1.9554228331      -19.3986339663      -40.7290091859  TIP3      3527            0.0000000000
     29297      3687  TIP3      H2              1.9598382277      -20.8835996205      -41.1100159881  TIP3      3527            0.0000000000
     29298      3688  TIP3      OH2           -15.3169614848      -23.4027947014      -28.8274412782  TIP3      3528            0.0000000000
     29299      3688  TIP3      H1            -16.1428267913      -23.4164368598      -29.3302283449  TIP3      3528            0.0000000000
     29300      3688  TIP3      H2            -14.9655786120      -24.2664305827      -29.0943830440  TIP3      3528            0.0000000000
     29301      3689  TIP3      OH2           -15.4025689504      -20.8052056111      -32.3592360476  TIP3      3529            0.0000000000
     29302      3689  TIP3      H1            -14.4769897712      -21.0758190249      -32.4568206390  TIP3      3529            0.0000000000
     29303      3689  TIP3      H2            -15.3575354858      -20.2562675129      -31.5586917292  TIP3      3529            0.0000000000
     29304      3690  TIP3      OH2             2.5486285928      -20.2393632374      -27.1010609250  TIP3      3530            0.0000000000
     29305      3690  TIP3      H1              2.5412566625      -21.0984399844      -26.6194907628  TIP3      3530            0.0000000000
     29306      3690  TIP3      H2              2.2754555425      -19.7013212414      -26.3312804309  TIP3      3530            0.0000000000
     29307      3691  TIP3      OH2            -6.8100816598      -20.5035165212      -27.0604219387  TIP3      3531            0.0000000000
     29308      3691  TIP3      H1             -6.9807084648      -19.6866847595      -26.5436716581  TIP3      3531            0.0000000000
     29309      3691  TIP3      H2             -7.6947019152      -20.9504326537      -27.0906286572  TIP3      3531            0.0000000000
     29310      3692  TIP3      OH2            -6.1641533206      -16.8250274382      -37.6240069965  TIP3      3532            0.0000000000
     29311      3692  TIP3      H1             -6.2073892615      -16.6837104854      -38.5849631183  TIP3      3532            0.0000000000
     29312      3692  TIP3      H2             -6.1417852353      -15.9015336644      -37.2732577661  TIP3      3532            0.0000000000
     29313      3693  TIP3      OH2           -12.4978714773      -18.3461917824      -35.6287104746  TIP3      3533            0.0000000000
     29314      3693  TIP3      H1            -12.2518883742      -18.6065432846      -34.7147046443  TIP3      3533            0.0000000000
     29315      3693  TIP3      H2            -13.4503508488      -18.5615801730      -35.6648908917  TIP3      3533            0.0000000000
     29316      3694  TIP3      OH2            -2.9332854847      -17.7108483390      -40.9417126943  TIP3      3534            0.0000000000
     29317      3694  TIP3      H1             -2.2854121723      -18.4476392337      -40.9772991116  TIP3      3534            0.0000000000
     29318      3694  TIP3      H2             -3.0542622457      -17.6194281591      -39.9687362179  TIP3      3534            0.0000000000
     29319      3695  TIP3      OH2            -3.3891572092      -17.7601843279      -38.1827643477  TIP3      3535            0.0000000000
     29320      3695  TIP3      H1             -4.1421347365      -17.7435675755      -37.5759003024  TIP3      3535            0.0000000000
     29321      3695  TIP3      H2             -2.8293818542      -18.4344595372      -37.7521781678  TIP3      3535            0.0000000000
     29322      3696  TIP3      OH2            -0.2127840332      -28.0477093720      -26.3720296930  TIP3      3536            0.0000000000
     29323      3696  TIP3      H1             -0.7445097504      -27.8073989530      -27.1500653739  TIP3      3536            0.0000000000
     29324      3696  TIP3      H2             -0.7149297811      -28.8274673416      -26.0631249650  TIP3      3536            0.0000000000
     29325      3697  TIP3      OH2           -13.1350154952      -22.3424135970      -27.7333145309  TIP3      3537            0.0000000000
     29326      3697  TIP3      H1            -12.8952882987      -22.8173691604      -26.8996970255  TIP3      3537            0.0000000000
     29327      3697  TIP3      H2            -13.9257055116      -22.8470226320      -28.0387834114  TIP3      3537            0.0000000000
     29328      3698  TIP3      OH2           -10.0433579820      -33.6121875528      -32.1437751719  TIP3      3538            0.0000000000
     29329      3698  TIP3      H1            -10.0633222084      -34.5400586873      -31.8347142549  TIP3      3538            0.0000000000
     29330      3698  TIP3      H2            -10.6711080806      -33.2365318376      -31.4813271638  TIP3      3538            0.0000000000
     29331      3699  TIP3      OH2            -5.7013743428      -33.5331347585      -28.3565602955  TIP3      3539            0.0000000000
     29332      3699  TIP3      H1             -5.1958327673      -34.3380994019      -28.5404632327  TIP3      3539            0.0000000000
     29333      3699  TIP3      H2             -6.6177243965      -33.8302026066      -28.5049878720  TIP3      3539            0.0000000000
     29334      3700  TIP3      OH2            -3.1644561507      -30.0880401138      -28.3182862189  TIP3      3540            0.0000000000
     29335      3700  TIP3      H1             -2.9428229529      -30.1697590333      -27.3756297323  TIP3      3540            0.0000000000
     29336      3700  TIP3      H2             -2.5784629511      -29.3845414950      -28.6254782715  TIP3      3540            0.0000000000
     29337      3701  TIP3      OH2            -1.0527772193      -25.5908057744      -41.7263110551  TIP3      3541            0.0000000000
     29338      3701  TIP3      H1             -1.8248891662      -25.4187333461      -42.2835449738  TIP3      3541            0.0000000000
     29339      3701  TIP3      H2             -0.6821991045      -24.6831402588      -41.6755266581  TIP3      3541            0.0000000000
     29340      3702  TIP3      OH2            -5.7541863669      -31.6872421673      -41.6193788418  TIP3      3542            0.0000000000
     29341      3702  TIP3      H1             -6.7010848543      -31.8630151170      -41.4643249907  TIP3      3542            0.0000000000
     29342      3702  TIP3      H2             -5.4541199228      -32.5666135902      -41.8603207373  TIP3      3542            0.0000000000
     29343      3703  TIP3      OH2           -10.4090575693      -28.3631780989      -30.7079993959  TIP3      3543            0.0000000000
     29344      3703  TIP3      H1            -10.7115622135      -27.5468543946      -30.2841256857  TIP3      3543            0.0000000000
     29345      3703  TIP3      H2            -10.2055530482      -27.9908830691      -31.5969420219  TIP3      3543            0.0000000000
     29346      3704  TIP3      OH2           -10.5264278976      -28.5557773540      -36.0432480578  TIP3      3544            0.0000000000
     29347      3704  TIP3      H1            -11.1580966640      -27.8192455035      -36.0878696707  TIP3      3544            0.0000000000
     29348      3704  TIP3      H2            -10.0375937653      -28.4491007888      -36.8938642412  TIP3      3544            0.0000000000
     29349      3705  TIP3      OH2            -4.7460311746      -27.7817972782      -37.0346558525  TIP3      3545            0.0000000000
     29350      3705  TIP3      H1             -5.1825957214      -26.9063495812      -37.1903470285  TIP3      3545            0.0000000000
     29351      3705  TIP3      H2             -4.3848590588      -27.9638713583      -37.9151533562  TIP3      3545            0.0000000000
     29352      3706  TIP3      OH2            -6.2979473861      -27.8247686904      -25.8383844563  TIP3      3546            0.0000000000
     29353      3706  TIP3      H1             -6.5806200285      -28.7553352986      -25.7250320243  TIP3      3546            0.0000000000
     29354      3706  TIP3      H2             -5.4065120233      -27.8915438487      -25.4524761675  TIP3      3546            0.0000000000
     29355      3707  TIP3      OH2            -4.0062723523      -28.5232727295      -34.0040682121  TIP3      3547            0.0000000000
     29356      3707  TIP3      H1             -4.2119350510      -27.6565122718      -34.3974306293  TIP3      3547            0.0000000000
     29357      3707  TIP3      H2             -3.9094392223      -29.0594478850      -34.8157187856  TIP3      3547            0.0000000000
     29358      3708  TIP3      OH2           -13.5302933233      -28.1934477784      -29.0434628819  TIP3      3548            0.0000000000
     29359      3708  TIP3      H1            -13.0143054620      -27.6625964000      -28.4051957787  TIP3      3548            0.0000000000
     29360      3708  TIP3      H2            -13.9874912987      -28.8394211850      -28.4817500653  TIP3      3548            0.0000000000
     29361      3709  TIP3      OH2            -9.1607198357      -30.6274028320      -41.5042617264  TIP3      3549            0.0000000000
     29362      3709  TIP3      H1             -9.7466558524      -31.2369512873      -41.9723306935  TIP3      3549            0.0000000000
     29363      3709  TIP3      H2             -9.0037144209      -29.9298152773      -42.1689102109  TIP3      3549            0.0000000000
     29364      3710  TIP3      OH2           -16.1426864861      -31.4805338217      -34.8098807723  TIP3      3550            0.0000000000
     29365      3710  TIP3      H1            -15.3632653069      -31.0787535954      -34.3992503252  TIP3      3550            0.0000000000
     29366      3710  TIP3      H2            -15.9103606148      -31.4778296872      -35.7599299469  TIP3      3550            0.0000000000
     29367      3711  TIP3      OH2           -15.2336099812      -30.7729814921      -39.0496281217  TIP3      3551            0.0000000000
     29368      3711  TIP3      H1            -14.5683160662      -30.2485733580      -39.5573448666  TIP3      3551            0.0000000000
     29369      3711  TIP3      H2            -15.9368685259      -30.1042982065      -39.0226620928  TIP3      3551            0.0000000000
     29370      3712  TIP3      OH2            -5.0399871243      -27.6070951174      -29.5218961983  TIP3      3552            0.0000000000
     29371      3712  TIP3      H1             -4.3538053223      -27.8617580454      -30.1868765334  TIP3      3552            0.0000000000
     29372      3712  TIP3      H2             -5.3565083392      -28.4571169230      -29.2028585492  TIP3      3552            0.0000000000
     29373      3713  TIP3      OH2            -7.9981213628      -31.1783665213      -35.0088527615  TIP3      3553            0.0000000000
     29374      3713  TIP3      H1             -8.9251851097      -31.0166575405      -34.7403011216  TIP3      3553            0.0000000000
     29375      3713  TIP3      H2             -7.5586576721      -31.1514001099      -34.1469297413  TIP3      3553            0.0000000000
     29376      3714  TIP3      OH2           -13.5414671117      -29.7169865345      -35.6220262651  TIP3      3554            0.0000000000
     29377      3714  TIP3      H1            -14.3084881659      -29.2064264009      -35.9938991256  TIP3      3554            0.0000000000
     29378      3714  TIP3      H2            -13.2398730564      -30.1029169242      -36.4476698437  TIP3      3554            0.0000000000
     29379      3715  TIP3      OH2            -9.6027292973      -29.0843528255      -38.4812376427  TIP3      3555            0.0000000000
     29380      3715  TIP3      H1             -8.6698481844      -28.8140306204      -38.4829686287  TIP3      3555            0.0000000000
     29381      3715  TIP3      H2             -9.9516813171      -28.6964884036      -39.3134696101  TIP3      3555            0.0000000000
     29382      3716  TIP3      OH2            -3.3345628752      -31.9585660581      -31.8106571229  TIP3      3556            0.0000000000
     29383      3716  TIP3      H1             -4.1089464801      -32.0848822336      -31.2323242419  TIP3      3556            0.0000000000
     29384      3716  TIP3      H2             -3.5951599323      -32.4588814127      -32.6161382405  TIP3      3556            0.0000000000
     29385      3717  TIP3      OH2           -10.8075168195      -28.2565627562      -40.7224645691  TIP3      3557            0.0000000000
     29386      3717  TIP3      H1            -11.4620732800      -28.1773113850      -41.4494670719  TIP3      3557            0.0000000000
     29387      3717  TIP3      H2             -9.9849253054      -27.9447493722      -41.1619602589  TIP3      3557            0.0000000000
     29388      3718  TIP3      OH2            -0.8152862960      -16.1959537887      -25.0349393350  TIP3      3558            0.0000000000
     29389      3718  TIP3      H1             -0.4142664791      -15.7145605278      -25.7846756812  TIP3      3558            0.0000000000
     29390      3718  TIP3      H2              0.0015307053      -16.4575136241      -24.5716643284  TIP3      3558            0.0000000000
     29391      3719  TIP3      OH2           -12.3350235330      -23.7675915423      -25.5663940734  TIP3      3559            0.0000000000
     29392      3719  TIP3      H1            -12.0073864240      -23.0726909242      -24.9779312376  TIP3      3559            0.0000000000
     29393      3719  TIP3      H2            -13.2070636487      -23.9764616690      -25.1649357026  TIP3      3559            0.0000000000
     29394      3720  TIP3      OH2            -6.5901071304      -28.7855349604      -33.1464413334  TIP3      3560            0.0000000000
     29395      3720  TIP3      H1             -5.7342530285      -28.7574044403      -33.6016474884  TIP3      3560            0.0000000000
     29396      3720  TIP3      H2             -6.6499452817      -29.7003294174      -32.8586184116  TIP3      3560            0.0000000000
     29397      3721  TIP3      OH2           -12.2441203385      -32.4686436163      -36.6915375022  TIP3      3561            0.0000000000
     29398      3721  TIP3      H1            -13.1816277115      -32.6721176425      -36.8901614581  TIP3      3561            0.0000000000
     29399      3721  TIP3      H2            -11.9998650420      -31.9515778333      -37.4697723943  TIP3      3561            0.0000000000
     29400      3722  TIP3      OH2            -8.3744462134      -30.4066057101      -31.1984152090  TIP3      3562            0.0000000000
     29401      3722  TIP3      H1             -8.7892559409      -29.5713663364      -31.4463238476  TIP3      3562            0.0000000000
     29402      3722  TIP3      H2             -7.5797080493      -30.0753129847      -30.7410196545  TIP3      3562            0.0000000000
     29403      3723  TIP3      OH2            -7.7466858390      -23.6202397088      -38.6489964610  TIP3      3563            0.0000000000
     29404      3723  TIP3      H1             -8.4972258437      -24.1830801219      -38.9526242808  TIP3      3563            0.0000000000
     29405      3723  TIP3      H2             -7.9934810674      -23.4874925601      -37.7097552944  TIP3      3563            0.0000000000
     29406      3724  TIP3      OH2            -0.2021156234      -24.8016740117      -29.8663992666  TIP3      3564            0.0000000000
     29407      3724  TIP3      H1              0.4319317174      -24.0907614849      -30.0877557878  TIP3      3564            0.0000000000
     29408      3724  TIP3      H2             -1.0612802631      -24.4356532614      -30.1468588393  TIP3      3564            0.0000000000
     29409      3725  TIP3      OH2            -3.1105183983      -31.3637732356      -41.0309590193  TIP3      3565            0.0000000000
     29410      3725  TIP3      H1             -4.0436125289      -31.5287620426      -41.2529245210  TIP3      3565            0.0000000000
     29411      3725  TIP3      H2             -3.2705087584      -30.6209452793      -40.4224718636  TIP3      3565            0.0000000000
     29412      3726  TIP3      OH2            -5.6577221420      -23.1092702795      -26.9020138638  TIP3      3566            0.0000000000
     29413      3726  TIP3      H1             -6.1781561457      -23.7756786768      -26.4398026352  TIP3      3566            0.0000000000
     29414      3726  TIP3      H2             -6.3766366691      -22.5307559323      -27.2096058499  TIP3      3566            0.0000000000
     29415      3727  TIP3      OH2            -3.3658241125      -29.4073771184      -39.0245964987  TIP3      3567            0.0000000000
     29416      3727  TIP3      H1             -2.6136672668      -29.3293433914      -38.4249223273  TIP3      3567            0.0000000000
     29417      3727  TIP3      H2             -3.2404773124      -28.5651865694      -39.5241696440  TIP3      3567            0.0000000000
     29418      3728  TIP3      OH2           -12.5605498822      -24.3059605218      -33.2289511717  TIP3      3568            0.0000000000
     29419      3728  TIP3      H1            -11.9105279741      -24.4839303759      -33.9381978501  TIP3      3568            0.0000000000
     29420      3728  TIP3      H2            -12.2666135464      -24.9626356595      -32.5587691246  TIP3      3568            0.0000000000
     29421      3729  TIP3      OH2            -5.7054896288      -22.3885782037      -39.8256897645  TIP3      3569            0.0000000000
     29422      3729  TIP3      H1             -6.2545279913      -21.6555515708      -39.4863306522  TIP3      3569            0.0000000000
     29423      3729  TIP3      H2             -6.2210856438      -23.1911169459      -39.5723028856  TIP3      3569            0.0000000000
     29424      3730  TIP3      OH2           -15.1677923015      -26.0794167417      -27.8053788712  TIP3      3570            0.0000000000
     29425      3730  TIP3      H1            -15.4175509486      -26.0954459396      -26.8604209786  TIP3      3570            0.0000000000
     29426      3730  TIP3      H2            -16.0252943417      -26.0996157799      -28.2641330115  TIP3      3570            0.0000000000
     29427      3731  TIP3      OH2            -8.7873073387      -26.3228647993      -25.8788619196  TIP3      3571            0.0000000000
     29428      3731  TIP3      H1             -8.6435518389      -26.1152028188      -26.8302110568  TIP3      3571            0.0000000000
     29429      3731  TIP3      H2             -7.9433566617      -26.7933280797      -25.7247883918  TIP3      3571            0.0000000000
     29430      3732  TIP3      OH2            -3.5705493494      -21.2444591216      -27.2789461446  TIP3      3572            0.0000000000
     29431      3732  TIP3      H1             -4.2671732627      -21.9139911461      -27.1228405846  TIP3      3572            0.0000000000
     29432      3732  TIP3      H2             -3.7310517868      -20.6478058916      -26.5186374270  TIP3      3572            0.0000000000
     29433      3733  TIP3      OH2             1.7174456634      -28.8779915704      -38.8770731556  TIP3      3573            0.0000000000
     29434      3733  TIP3      H1              1.3007229642      -29.3389020740      -39.6268350964  TIP3      3573            0.0000000000
     29435      3733  TIP3      H2              1.8549125516      -27.9734653000      -39.2495188706  TIP3      3573            0.0000000000
     29436      3734  TIP3      OH2             2.0312665721      -22.8737215542      -26.7058260163  TIP3      3574            0.0000000000
     29437      3734  TIP3      H1              1.1025679743      -22.6817768060      -26.9725007946  TIP3      3574            0.0000000000
     29438      3734  TIP3      H2              2.5004676392      -22.6878555109      -27.5532255955  TIP3      3574            0.0000000000
     29439      3735  TIP3      OH2            -0.5999190856      -19.6330177967      -39.1189472319  TIP3      3575            0.0000000000
     29440      3735  TIP3      H1             -1.0305608647      -20.4861967030      -38.9889890860  TIP3      3575            0.0000000000
     29441      3735  TIP3      H2              0.0496228311      -19.8441046898      -39.8262402090  TIP3      3575            0.0000000000
     29442      3736  TIP3      OH2            -2.9911211732      -26.4524841583      -31.2177417022  TIP3      3576            0.0000000000
     29443      3736  TIP3      H1             -3.1513127528      -25.4897960692      -31.0696309224  TIP3      3576            0.0000000000
     29444      3736  TIP3      H2             -2.3034002727      -26.4480400049      -31.9013596687  TIP3      3576            0.0000000000
     29445      3737  TIP3      OH2           -10.1308457142      -20.9884600217      -35.2136293855  TIP3      3577            0.0000000000
     29446      3737  TIP3      H1             -9.9824878946      -20.0484759904      -35.0428654801  TIP3      3577            0.0000000000
     29447      3737  TIP3      H2            -11.0822387661      -20.9905070452      -35.4151384726  TIP3      3577            0.0000000000
     29448      3738  TIP3      OH2           -14.1969779035      -25.8967117410      -40.2648639984  TIP3      3578            0.0000000000
     29449      3738  TIP3      H1            -13.4584868078      -25.6075034356      -40.8161182759  TIP3      3578            0.0000000000
     29450      3738  TIP3      H2            -14.6711360317      -26.4074322679      -40.9314273869  TIP3      3578            0.0000000000
     29451      3739  TIP3      OH2            -8.5167421570      -22.9338843586      -36.2320941623  TIP3      3579            0.0000000000
     29452      3739  TIP3      H1             -9.2197606963      -22.5418088189      -35.6812583333  TIP3      3579            0.0000000000
     29453      3739  TIP3      H2             -8.3085027869      -23.7802468676      -35.7724627851  TIP3      3579            0.0000000000
     29454      3740  TIP3      OH2            -7.7526502007      -19.3029303186      -29.2544979922  TIP3      3580            0.0000000000
     29455      3740  TIP3      H1             -7.3856688587      -18.4037883073      -29.3392209657  TIP3      3580            0.0000000000
     29456      3740  TIP3      H2             -7.4325565910      -19.5893375289      -28.3748995916  TIP3      3580            0.0000000000
     29457      3741  TIP3      OH2           -10.2235200346      -18.5316322444      -36.9217500828  TIP3      3581            0.0000000000
     29458      3741  TIP3      H1            -11.0630082357      -18.4310439973      -36.4184428343  TIP3      3581            0.0000000000
     29459      3741  TIP3      H2             -9.6765864767      -17.8460490094      -36.4562971438  TIP3      3581            0.0000000000
     29460      3742  TIP3      OH2            -5.7231004796      -22.8375795716      -29.7002307556  TIP3      3582            0.0000000000
     29461      3742  TIP3      H1             -5.5917503183      -23.4747476351      -28.9870830956  TIP3      3582            0.0000000000
     29462      3742  TIP3      H2             -4.8605864167      -22.9740977393      -30.1692704178  TIP3      3582            0.0000000000
     29463      3743  TIP3      OH2            -2.5199618858      -21.5133950223      -40.2461796068  TIP3      3583            0.0000000000
     29464      3743  TIP3      H1             -2.0004352832      -21.9976524709      -39.5657691660  TIP3      3583            0.0000000000
     29465      3743  TIP3      H2             -3.1942231506      -22.2070222441      -40.3448555144  TIP3      3583            0.0000000000
     29466      3744  TIP3      OH2            -2.0442751633      -18.3720216062      -28.1143181380  TIP3      3584            0.0000000000
     29467      3744  TIP3      H1             -1.7156686818      -19.2500368795      -28.3970596974  TIP3      3584            0.0000000000
     29468      3744  TIP3      H2             -1.5204750062      -17.8279896763      -28.7475948075  TIP3      3584            0.0000000000
     29469      3745  TIP3      OH2             2.0951456460      -17.5736467146      -41.0158292144  TIP3      3585            0.0000000000
     29470      3745  TIP3      H1              2.7780760225      -16.9176864802      -40.7450935241  TIP3      3585            0.0000000000
     29471      3745  TIP3      H2              1.2982324292      -17.1441198809      -40.6406460807  TIP3      3585            0.0000000000
     29472      3746  TIP3      OH2           -13.7749607339      -31.3614837678      -28.4376317458  TIP3      3586            0.0000000000
     29473      3746  TIP3      H1            -14.7006252021      -31.6500100700      -28.4589776619  TIP3      3586            0.0000000000
     29474      3746  TIP3      H2            -13.3133319181      -32.1375703875      -28.0382839078  TIP3      3586            0.0000000000
     29475      3747  TIP3      OH2            -1.3122711693      -23.3513387613      -38.7013056515  TIP3      3587            0.0000000000
     29476      3747  TIP3      H1             -1.4624830924      -24.1404819585      -38.1222144402  TIP3      3587            0.0000000000
     29477      3747  TIP3      H2             -0.4240760887      -23.5690217498      -39.0345893632  TIP3      3587            0.0000000000
     29478      3748  TIP3      OH2           -14.4753184988      -20.3625585537      -29.3825857697  TIP3      3588            0.0000000000
     29479      3748  TIP3      H1            -13.9222753972      -21.0692585623      -28.9856693100  TIP3      3588            0.0000000000
     29480      3748  TIP3      H2            -15.3772678419      -20.6056773796      -29.1205487606  TIP3      3588            0.0000000000
     29481      3749  TIP3      OH2            -9.4083501760      -21.2194206480      -39.8975307434  TIP3      3589            0.0000000000
     29482      3749  TIP3      H1             -8.8036220752      -21.9625798890      -39.7240583935  TIP3      3589            0.0000000000
     29483      3749  TIP3      H2             -8.9451260853      -20.3983091611      -39.6371853805  TIP3      3589            0.0000000000
     29484      3750  TIP3      OH2           -12.3506277999      -23.7923716068      -39.5158009107  TIP3      3590            0.0000000000
     29485      3750  TIP3      H1            -13.3220546889      -23.8371538747      -39.4379109751  TIP3      3590            0.0000000000
     29486      3750  TIP3      H2            -12.1881144975      -22.8575531881      -39.6956241173  TIP3      3590            0.0000000000
     29487      3751  TIP3      OH2            -5.2563173435      -31.2560199455      -29.6687947856  TIP3      3591            0.0000000000
     29488      3751  TIP3      H1             -4.5408825196      -30.7643393750      -29.2055424734  TIP3      3591            0.0000000000
     29489      3751  TIP3      H2             -5.3605807486      -32.0189510806      -29.0525133959  TIP3      3591            0.0000000000
     29490      3752  TIP3      OH2            -4.0772248819      -31.9448485038      -37.7688253696  TIP3      3592            0.0000000000
     29491      3752  TIP3      H1             -3.8825263182      -31.4119819964      -38.5549561580  TIP3      3592            0.0000000000
     29492      3752  TIP3      H2             -3.5894663114      -31.4546237197      -37.0675718175  TIP3      3592            0.0000000000
     29493      3753  TIP3      OH2            -6.1659402890      -19.8870509754      -38.9068840235  TIP3      3593            0.0000000000
     29494      3753  TIP3      H1             -6.7673621977      -19.2072323535      -39.2621037350  TIP3      3593            0.0000000000
     29495      3753  TIP3      H2             -5.2919701142      -19.5192829464      -39.0942059673  TIP3      3593            0.0000000000
     29496      3754  TIP3      OH2            -6.9286421961      -30.1262224566      -37.6184241041  TIP3      3594            0.0000000000
     29497      3754  TIP3      H1             -6.4019736704      -29.3105889651      -37.6485263083  TIP3      3594            0.0000000000
     29498      3754  TIP3      H2             -7.2553853042      -30.1149038253      -36.7021285957  TIP3      3594            0.0000000000
     29499      3755  TIP3      OH2            -7.1603334440      -29.2427131755      -27.9257138939  TIP3      3595            0.0000000000
     29500      3755  TIP3      H1             -6.7197181437      -28.5050453106      -27.4544146251  TIP3      3595            0.0000000000
     29501      3755  TIP3      H2             -6.4680834515      -29.9266063833      -27.9300038631  TIP3      3595            0.0000000000
     29502      3756  TIP3      OH2            -6.5235444160      -33.1570565368      -36.7490804739  TIP3      3596            0.0000000000
     29503      3756  TIP3      H1             -6.7935989135      -32.5799787009      -36.0173264388  TIP3      3596            0.0000000000
     29504      3756  TIP3      H2             -5.6434445007      -32.7739839595      -36.9484235699  TIP3      3596            0.0000000000
     29505      3757  TIP3      OH2            -8.8925416770      -18.7333871628      -39.0826360709  TIP3      3597            0.0000000000
     29506      3757  TIP3      H1             -8.9606792908      -18.0606245014      -39.7824571262  TIP3      3597            0.0000000000
     29507      3757  TIP3      H2             -9.5574278180      -18.4041050964      -38.4232483240  TIP3      3597            0.0000000000
     29508      3758  TIP3      OH2           -10.6452210950      -31.7325353352      -39.3899343201  TIP3      3598            0.0000000000
     29509      3758  TIP3      H1            -10.7667105746      -30.7650009284      -39.3716751689  TIP3      3598            0.0000000000
     29510      3758  TIP3      H2             -9.8546254479      -31.7588086674      -39.9770404759  TIP3      3598            0.0000000000
     29511      3759  TIP3      OH2            -0.4139460333      -31.8016572895      -27.7286890462  TIP3      3599            0.0000000000
     29512      3759  TIP3      H1             -1.0866261352      -31.6326341004      -27.0492704073  TIP3      3599            0.0000000000
     29513      3759  TIP3      H2             -0.9539433355      -32.0891470548      -28.4991968670  TIP3      3599            0.0000000000
     29514      3760  TIP3      OH2            -1.5443199210      -27.6676920920      -33.5469206814  TIP3      3600            0.0000000000
     29515      3760  TIP3      H1             -2.4727637671      -27.9084280417      -33.3386643489  TIP3      3600            0.0000000000
     29516      3760  TIP3      H2             -1.0385285497      -28.1794323729      -32.8797129678  TIP3      3600            0.0000000000
     29517      3761  TIP3      OH2           -11.8625552111      -21.3407292505      -40.9562821207  TIP3      3601            0.0000000000
     29518      3761  TIP3      H1            -10.9058594902      -21.4790559818      -40.7630177138  TIP3      3601            0.0000000000
     29519      3761  TIP3      H2            -12.1274324964      -22.1348304601      -41.4458469288  TIP3      3601            0.0000000000
     29520      3762  TIP3      OH2           -13.9942304952      -29.1272660993      -40.5515167394  TIP3      3602            0.0000000000
     29521      3762  TIP3      H1            -13.4571634206      -28.3418148718      -40.4049477534  TIP3      3602            0.0000000000
     29522      3762  TIP3      H2            -14.2839439307      -28.9298481507      -41.4632354501  TIP3      3602            0.0000000000
     29523      3763  TIP3      OH2            -0.8092721323      -18.1706847220      -32.0074449260  TIP3      3603            0.0000000000
     29524      3763  TIP3      H1             -0.6578221730      -17.3477417420      -32.5209264950  TIP3      3603            0.0000000000
     29525      3763  TIP3      H2             -0.1236860751      -18.7581836868      -32.3407524833  TIP3      3603            0.0000000000
     29526      3764  TIP3      OH2           -13.7152414103      -33.7222292254      -33.1428314548  TIP3      3604            0.0000000000
     29527      3764  TIP3      H1            -14.0257921196      -34.2176677547      -33.9285577817  TIP3      3604            0.0000000000
     29528      3764  TIP3      H2            -13.3565527548      -34.4760991615      -32.6155275495  TIP3      3604            0.0000000000
     29529      3765  TIP3      OH2           -14.6251094931      -19.9748884696      -36.5160953040  TIP3      3605            0.0000000000
     29530      3765  TIP3      H1            -15.2893275334      -19.4637575610      -37.0084716719  TIP3      3605            0.0000000000
     29531      3765  TIP3      H2            -13.9016523094      -19.8653370182      -37.1487887014  TIP3      3605            0.0000000000
     29532      3766  TIP3      OH2           -14.9826575365      -17.8351025305      -25.6196739481  TIP3      3606            0.0000000000
     29533      3766  TIP3      H1            -15.1329029815      -18.2194734753      -24.7505557622  TIP3      3606            0.0000000000
     29534      3766  TIP3      H2            -15.4382201369      -18.5005534383      -26.1764029461  TIP3      3606            0.0000000000
     29535      3767  TIP3      OH2            -6.4370310733      -18.6268024209      -41.5841255629  TIP3      3607            0.0000000000
     29536      3767  TIP3      H1             -7.0849433561      -19.2797340962      -41.8989987031  TIP3      3607            0.0000000000
     29537      3767  TIP3      H2             -6.0006384751      -18.4241521853      -42.4341613349  TIP3      3607            0.0000000000
     29538      3768  TIP3      OH2            -3.6962602812      -19.7668604989      -24.9810658878  TIP3      3608            0.0000000000
     29539      3768  TIP3      H1             -4.0440166420      -20.5977825685      -24.6447094049  TIP3      3608            0.0000000000
     29540      3768  TIP3      H2             -2.9174235155      -19.6268314175      -24.4044306685  TIP3      3608            0.0000000000
     29541      3769  TIP3      OH2            -1.0282605752      -19.6026278304      -42.2172299665  TIP3      3609            0.0000000000
     29542      3769  TIP3      H1             -1.0139094308      -20.5707573660      -42.0406865544  TIP3      3609            0.0000000000
     29543      3769  TIP3      H2             -0.1463697445      -19.4297329222      -41.8417116052  TIP3      3609            0.0000000000
     29544      3770  TIP3      OH2           -15.0457756271      -23.9188413821      -24.9895175672  TIP3      3610            0.0000000000
     29545      3770  TIP3      H1            -15.8867857821      -24.2813152347      -24.6368258944  TIP3      3610            0.0000000000
     29546      3770  TIP3      H2            -15.3957573332      -23.1468953810      -25.4729086616  TIP3      3610            0.0000000000
     29547      3771  TIP3      OH2           -10.0368590269      -22.9609374748      -42.2783974991  TIP3      3611            0.0000000000
     29548      3771  TIP3      H1            -10.5845149791      -23.4039571512      -41.6194118122  TIP3      3611            0.0000000000
     29549      3771  TIP3      H2             -9.9380095331      -23.7371812514      -42.8796730666  TIP3      3611            0.0000000000
     29550      3772  TIP3      OH2            -8.2708029707      -23.8417267427      -25.0412549544  TIP3      3612            0.0000000000
     29551      3772  TIP3      H1             -8.4269025070      -23.1325613200      -25.7051559441  TIP3      3612            0.0000000000
     29552      3772  TIP3      H2             -8.5592129081      -24.6553294654      -25.5105819011  TIP3      3612            0.0000000000
     29553      3773  TIP3      OH2            -2.7438225817      -24.0418566463      -27.3654519953  TIP3      3613            0.0000000000
     29554      3773  TIP3      H1             -2.0665059808      -23.3331988415      -27.3767715371  TIP3      3613            0.0000000000
     29555      3773  TIP3      H2             -3.4434600585      -23.5881433807      -27.8583065205  TIP3      3613            0.0000000000
     29556      3774  TIP3      OH2           -13.3782300884      -26.9237553007      -25.6501050826  TIP3      3614            0.0000000000
     29557      3774  TIP3      H1            -13.8786764624      -27.3686310503      -24.9457133852  TIP3      3614            0.0000000000
     29558      3774  TIP3      H2            -13.1894212435      -26.0844295125      -25.2143576325  TIP3      3614            0.0000000000
     29559      3775  TIP3      OH2            -9.6099414483      -25.1803605211      -39.5347566510  TIP3      3615            0.0000000000
     29560      3775  TIP3      H1            -10.3912664283      -25.6488640015      -39.2178539040  TIP3      3615            0.0000000000
     29561      3775  TIP3      H2             -9.2062764897      -25.8393737310      -40.1241048126  TIP3      3615            0.0000000000
     29562      3776  TIP3      OH2           -10.8528157357      -27.3986860689      -27.9789679061  TIP3      3616            0.0000000000
     29563      3776  TIP3      H1            -11.2745558515      -26.5843740815      -27.6612380496  TIP3      3616            0.0000000000
     29564      3776  TIP3      H2            -10.0118500939      -27.0667247160      -28.3207544749  TIP3      3616            0.0000000000
     29565      3777  TIP3      OH2            -8.4621150756      -27.0146187408      -41.6742575906  TIP3      3617            0.0000000000
     29566      3777  TIP3      H1             -8.1660923103      -27.2377463006      -42.5696869868  TIP3      3617            0.0000000000
     29567      3777  TIP3      H2             -7.6553894999      -26.5132600303      -41.3875027866  TIP3      3617            0.0000000000
     29568      3778  TIP3      OH2            -4.7358049616      -25.2422552721      -23.7344176677  TIP3      3618            0.0000000000
     29569      3778  TIP3      H1             -4.2312837078      -25.4624020691      -24.5454816226  TIP3      3618            0.0000000000
     29570      3778  TIP3      H2             -5.4489356992      -25.8951229303      -23.6842406187  TIP3      3618            0.0000000000
     29571      3779  TIP3      OH2             1.7769499796      -24.8406573314      -42.2346866826  TIP3      3619            0.0000000000
     29572      3779  TIP3      H1              0.9136889318      -24.8229399780      -42.6984194611  TIP3      3619            0.0000000000
     29573      3779  TIP3      H2              1.7250506730      -23.9497169914      -41.8614948529  TIP3      3619            0.0000000000
     29574      3780  TIP3      OH2            -9.8666517708      -29.8318924327      -27.1019867188  TIP3      3620            0.0000000000
     29575      3780  TIP3      H1             -9.2505503197      -30.4547078346      -27.5184603192  TIP3      3620            0.0000000000
     29576      3780  TIP3      H2             -9.5394141967      -28.9678443468      -27.3955445554  TIP3      3620            0.0000000000
     29577      3781  TIP3      OH2            -9.1947164206      -31.9129163012      -29.0914969488  TIP3      3621            0.0000000000
     29578      3781  TIP3      H1             -8.5968759833      -31.4494622326      -29.7161718173  TIP3      3621            0.0000000000
     29579      3781  TIP3      H2             -9.9025982970      -32.2049491570      -29.6888732892  TIP3      3621            0.0000000000
     29580      3782  TIP3      OH2            -8.0096746846      -26.0608403412      -28.4734977655  TIP3      3622            0.0000000000
     29581      3782  TIP3      H1             -7.1581048651      -26.3012825884      -28.8788427198  TIP3      3622            0.0000000000
     29582      3782  TIP3      H2             -8.4167993851      -25.4949099472      -29.1749214096  TIP3      3622            0.0000000000
     29583      3783  TIP3      OH2            -3.7857371103      -28.6368450920      -23.5683859578  TIP3      3623            0.0000000000
     29584      3783  TIP3      H1             -3.2462259866      -29.4513002857      -23.7013637814  TIP3      3623            0.0000000000
     29585      3783  TIP3      H2             -3.1231108897      -27.9499103419      -23.6927093776  TIP3      3623            0.0000000000
     29586      3784  TIP3      OH2            -2.6231362964      -25.7384610806      -25.4419384121  TIP3      3624            0.0000000000
     29587      3784  TIP3      H1             -2.7684005318      -25.0088058336      -26.0962587778  TIP3      3624            0.0000000000
     29588      3784  TIP3      H2             -2.0021745577      -26.2698316676      -25.9587514611  TIP3      3624            0.0000000000
     29589      3785  TIP3      OH2           -11.5966430573      -28.8140377096      -24.5364087018  TIP3      3625            0.0000000000
     29590      3785  TIP3      H1            -12.4296877733      -28.9061020482      -24.0176027989  TIP3      3625            0.0000000000
     29591      3785  TIP3      H2            -11.8511462226      -29.2632346825      -25.3668885631  TIP3      3625            0.0000000000
     29592      3786  TIP3      OH2            -8.3682614226      -34.6049424731      -28.6915706829  TIP3      3626            0.0000000000
     29593      3786  TIP3      H1             -8.8322276729      -33.7455274547      -28.7445591867  TIP3      3626            0.0000000000
     29594      3786  TIP3      H2             -9.0988483684      -35.2225224313      -28.8669328640  TIP3      3626            0.0000000000
     29595      3787  TIP3      OH2            -7.8601001231      -30.3035710785      -24.9391725154  TIP3      3627            0.0000000000
     29596      3787  TIP3      H1             -8.0670580700      -31.1506876100      -24.4938020518  TIP3      3627            0.0000000000
     29597      3787  TIP3      H2             -7.9505446222      -30.5509087227      -25.8769837105  TIP3      3627            0.0000000000
     29598      3788  TIP3      OH2            -5.0347306020      -30.7296038085      -26.1263242167  TIP3      3628            0.0000000000
     29599      3788  TIP3      H1             -5.3602678337      -31.3079537114      -25.4289887284  TIP3      3628            0.0000000000
     29600      3788  TIP3      H2             -4.0871735867      -30.6659642449      -25.8930184164  TIP3      3628            0.0000000000
     29601      3789  TIP3      OH2            -3.8124563972      -32.2346696407      -22.7439417032  TIP3      3629            0.0000000000
     29602      3789  TIP3      H1             -3.1023152719      -32.7899823862      -23.0960290149  TIP3      3629            0.0000000000
     29603      3789  TIP3      H2             -4.5763313237      -32.7551663862      -22.9935372326  TIP3      3629            0.0000000000
     29604      3790  TIP3      OH2           -13.4018441216      -31.0408244730      -24.9133237318  TIP3      3630            0.0000000000
     29605      3790  TIP3      H1            -13.0719953746      -31.7951078750      -25.4369962582  TIP3      3630            0.0000000000
     29606      3790  TIP3      H2            -13.6431952827      -31.4367539562      -24.0709185915  TIP3      3630            0.0000000000
     29607      3791  TIP3      OH2            -7.8380991368       35.4069558569      -25.8762133894  TIP3      3631            0.0000000000
     29608      3791  TIP3      H1             -7.7108588544       34.4841428663      -25.5969529001  TIP3      3631            0.0000000000
     29609      3791  TIP3      H2             -8.1277906573       35.3298679477      -26.8149064770  TIP3      3631            0.0000000000
     29610      3792  TIP3      OH2            -8.1785089951      -33.0635960874      -23.5894276039  TIP3      3632            0.0000000000
     29611      3792  TIP3      H1             -7.7066536755      -33.7379832139      -24.1174603371  TIP3      3632            0.0000000000
     29612      3792  TIP3      H2             -9.0388532393      -33.1109381742      -24.0151829546  TIP3      3632            0.0000000000
     29613      3793  TIP3      OH2            -8.6857091562      -16.2783627373      -40.4647436495  TIP3      3633            0.0000000000
     29614      3793  TIP3      H1             -7.7470503446      -16.0304554302      -40.4689074091  TIP3      3633            0.0000000000
     29615      3793  TIP3      H2             -9.0204516190      -15.6582625389      -39.7983853159  TIP3      3633            0.0000000000
     29616      3794  TIP3      OH2           -15.1262544654      -22.0697779338      -41.4038824061  TIP3      3634            0.0000000000
     29617      3794  TIP3      H1            -14.4584017943      -22.7810469096      -41.3519718688  TIP3      3634            0.0000000000
     29618      3794  TIP3      H2            -15.2348761733      -22.0362497807      -42.3759427756  TIP3      3634            0.0000000000
     29619      3795  TIP3      OH2           -15.9413053265      -17.1118175001      -36.3696607748  TIP3      3635            0.0000000000
     29620      3795  TIP3      H1            -16.7735049878      -17.5171440969      -36.7055716051  TIP3      3635            0.0000000000
     29621      3795  TIP3      H2            -15.8226913603      -17.4963380952      -35.4802681162  TIP3      3635            0.0000000000
     29622      3796  TIP3      OH2           -15.4412219438      -18.4925830666      -33.9888682651  TIP3      3636            0.0000000000
     29623      3796  TIP3      H1            -15.5323418548      -19.4676758152      -33.9588533455  TIP3      3636            0.0000000000
     29624      3796  TIP3      H2            -16.1819183557      -18.2570188167      -33.3992605436  TIP3      3636            0.0000000000
     29625      3797  TIP3      OH2             2.5113695008      -17.1478625171      -31.4991706831  TIP3      3637            0.0000000000
     29626      3797  TIP3      H1              2.0298317948      -17.4259030454      -30.7015179411  TIP3      3637            0.0000000000
     29627      3797  TIP3      H2              3.4261474285      -17.3244481369      -31.2099842485  TIP3      3637            0.0000000000
     29628      3798  TIP3      OH2             2.0171435736      -18.1655395706      -28.8759151293  TIP3      3638            0.0000000000
     29629      3798  TIP3      H1              1.1452906408      -18.5187365018      -29.1741430814  TIP3      3638            0.0000000000
     29630      3798  TIP3      H2              2.3534245722      -18.9680800376      -28.4097601604  TIP3      3638            0.0000000000
     29631      3799  TIP3      OH2             0.1613076209      -21.9996104838      -24.0179208794  TIP3      3639            0.0000000000
     29632      3799  TIP3      H1             -0.5442115526      -21.3344491496      -23.9283953403  TIP3      3639            0.0000000000
     29633      3799  TIP3      H2              0.8770198450      -21.4265927834      -24.3775469843  TIP3      3639            0.0000000000
     29634      3800  TIP3      OH2             1.4750282340      -24.0730695402      -38.7872094425  TIP3      3640            0.0000000000
     29635      3800  TIP3      H1              2.2608963720      -23.6529980026      -38.3699895902  TIP3      3640            0.0000000000
     29636      3800  TIP3      H2              1.0647627200      -24.5271254802      -38.0325697823  TIP3      3640            0.0000000000
     29637      3801  TIP3      OH2             2.1818649105      -25.9943913828      -36.2911003254  TIP3      3641            0.0000000000
     29638      3801  TIP3      H1              1.3375998828      -26.3458944456      -35.9251525382  TIP3      3641            0.0000000000
     29639      3801  TIP3      H2              2.6760712691      -25.7911385896      -35.4624934619  TIP3      3641            0.0000000000
     29640      3802  TIP3      OH2             1.5539132663      -23.5933256638      -32.7207776339  TIP3      3642            0.0000000000
     29641      3802  TIP3      H1              2.2322560878      -24.0703606434      -32.2020496467  TIP3      3642            0.0000000000
     29642      3802  TIP3      H2              1.4550010329      -22.7985069762      -32.1706065478  TIP3      3642            0.0000000000
     29643      3803  TIP3      OH2            -0.0411831043      -19.8066057661      -29.3148672893  TIP3      3643            0.0000000000
     29644      3803  TIP3      H1              0.5397465973      -20.4401026187      -28.8477219529  TIP3      3643            0.0000000000
     29645      3803  TIP3      H2             -0.2686995779      -20.3201559863      -30.1228343162  TIP3      3643            0.0000000000
     29646      3804  TIP3      OH2             1.9812794748      -26.4013333585      -40.0479386252  TIP3      3644            0.0000000000
     29647      3804  TIP3      H1              1.5046997201      -25.9718335717      -40.7920730645  TIP3      3644            0.0000000000
     29648      3804  TIP3      H2              2.0635529265      -25.6117837017      -39.4785053266  TIP3      3644            0.0000000000
     29649      3805  TIP3      OH2            -0.3627795191      -28.9019982683      -41.5074051854  TIP3      3645            0.0000000000
     29650      3805  TIP3      H1              0.1407777712      -28.3113364264      -42.1022516183  TIP3      3645            0.0000000000
     29651      3805  TIP3      H2             -0.4185476571      -29.7218575493      -42.0554813932  TIP3      3645            0.0000000000
     29652      3806  TIP3      OH2            -0.2150268095      -27.1543913315      -35.7726564980  TIP3      3646            0.0000000000
     29653      3806  TIP3      H1             -0.5297399018      -27.7956959940      -36.4246648694  TIP3      3646            0.0000000000
     29654      3806  TIP3      H2             -0.6786633939      -27.4402592198      -34.9487775011  TIP3      3646            0.0000000000
     29655      3807  TIP3      OH2           -15.5408361027      -25.3998439088      -31.9013973078  TIP3      3647            0.0000000000
     29656      3807  TIP3      H1            -15.6753081144      -25.5585331486      -32.8557413847  TIP3      3647            0.0000000000
     29657      3807  TIP3      H2            -14.5851000772      -25.6442696094      -31.8422640497  TIP3      3647            0.0000000000
     29658      3808  TIP3      OH2             0.9051624028      -25.2780916362      -26.2685591005  TIP3      3648            0.0000000000
     29659      3808  TIP3      H1              1.5770813640      -25.7940534931      -26.7690974371  TIP3      3648            0.0000000000
     29660      3808  TIP3      H2              1.3641232508      -24.4137457591      -26.2955553421  TIP3      3648            0.0000000000
     29661      3809  TIP3      OH2             2.0859213156      -27.9160717083      -24.8585759120  TIP3      3649            0.0000000000
     29662      3809  TIP3      H1              1.4099757145      -27.8154373594      -25.5595069998  TIP3      3649            0.0000000000
     29663      3809  TIP3      H2              2.8359982511      -28.2239347963      -25.4104819035  TIP3      3649            0.0000000000
     29664      3810  TIP3      OH2            -0.4887867868      -31.4599848975      -42.4099357403  TIP3      3650            0.0000000000
     29665      3810  TIP3      H1              0.1201125615      -31.7519772638      -41.6992092055  TIP3      3650            0.0000000000
     29666      3810  TIP3      H2             -1.3908389735      -31.5020898142      -42.0076954637  TIP3      3650            0.0000000000
     29667      3811  TIP3      OH2            -0.7255710123      -29.5828473288      -37.5214028641  TIP3      3651            0.0000000000
     29668      3811  TIP3      H1             -0.5610808670      -30.5580774602      -37.4709758492  TIP3      3651            0.0000000000
     29669      3811  TIP3      H2             -0.0855603680      -29.3499331991      -38.2172866421  TIP3      3651            0.0000000000
     29670      3812  TIP3      OH2            -0.1592385494      -29.2976194133      -31.9396156508  TIP3      3652            0.0000000000
     29671      3812  TIP3      H1              0.7884675617      -29.0677553664      -31.8161631340  TIP3      3652            0.0000000000
     29672      3812  TIP3      H2             -0.3716427301      -29.4887637002      -31.0110545764  TIP3      3652            0.0000000000
     29673      3813  TIP3      OH2             0.0072341823      -28.3782941046      -29.4726720937  TIP3      3653            0.0000000000
     29674      3813  TIP3      H1             -0.8771044266      -27.9609119642      -29.3680923435  TIP3      3653            0.0000000000
     29675      3813  TIP3      H2              0.5581243373      -27.6030732853      -29.7421216089  TIP3      3653            0.0000000000
     29676      3814  TIP3      OH2           -15.5801063732      -29.7390096941      -25.9478440131  TIP3      3654            0.0000000000
     29677      3814  TIP3      H1            -14.7337699168      -30.0899078398      -25.5906149374  TIP3      3654            0.0000000000
     29678      3814  TIP3      H2            -16.1192023871      -30.5607063561      -25.9983892841  TIP3      3654            0.0000000000
     29679      3815  TIP3      OH2             2.6097301031      -34.4831384756      -23.9249462383  TIP3      3655            0.0000000000
     29680      3815  TIP3      H1              2.2207226612      -35.2467357411      -24.3851495957  TIP3      3655            0.0000000000
     29681      3815  TIP3      H2              2.2066878348      -33.7370471360      -24.4335112543  TIP3      3655            0.0000000000
     29682      3816  TIP3      OH2            -0.5894791740      -32.2851815537      -37.2567433646  TIP3      3656            0.0000000000
     29683      3816  TIP3      H1              0.2251532008      -32.8298711273      -37.2874386494  TIP3      3656            0.0000000000
     29684      3816  TIP3      H2             -1.2207201996      -32.9793641072      -37.5239743002  TIP3      3656            0.0000000000
     29685      3817  TIP3      OH2           -14.3977629864      -31.2478127711      -32.5798814044  TIP3      3657            0.0000000000
     29686      3817  TIP3      H1            -14.2892122886      -32.2114904165      -32.7422330321  TIP3      3657            0.0000000000
     29687      3817  TIP3      H2            -13.5215161184      -30.8583529262      -32.7569769697  TIP3      3657            0.0000000000
     29688      3818  TIP3      OH2           -16.1466482315      -28.5479783903      -31.7997010324  TIP3      3658            0.0000000000
     29689      3818  TIP3      H1            -15.8675040917      -29.1470717785      -32.5067013795  TIP3      3658            0.0000000000
     29690      3818  TIP3      H2            -15.3980535141      -27.9303244743      -31.8051761449  TIP3      3658            0.0000000000
     29691      3819  TIP3      OH2             1.6841568065      -32.3821999729      -25.3288634525  TIP3      3659            0.0000000000
     29692      3819  TIP3      H1              0.8799508818      -31.8811160199      -25.5449493054  TIP3      3659            0.0000000000
     29693      3819  TIP3      H2              1.7006362675      -32.9711012991      -26.1051188363  TIP3      3659            0.0000000000
     29694      3820  TIP3      OH2             1.6221040310      -32.2112626192      -40.8268048206  TIP3      3660            0.0000000000
     29695      3820  TIP3      H1              2.0741130854      -32.9937614964      -41.1481561967  TIP3      3660            0.0000000000
     29696      3820  TIP3      H2              2.3784256324      -31.5931358222      -40.7644437141  TIP3      3660            0.0000000000
     29697      3821  TIP3      OH2           -15.8454701410      -32.5529948336      -37.3048893381  TIP3      3661            0.0000000000
     29698      3821  TIP3      H1            -16.8127899572      -32.4835676071      -37.4108813394  TIP3      3661            0.0000000000
     29699      3821  TIP3      H2            -15.5421062099      -32.0505408351      -38.0990801823  TIP3      3661            0.0000000000
     29700      3822  TIP3      OH2            -0.8884342818      -17.7940530738      -35.8224513955  TIP3      3662            0.0000000000
     29701      3822  TIP3      H1             -0.1061518023      -18.2009949275      -36.2540851527  TIP3      3662            0.0000000000
     29702      3822  TIP3      H2             -0.5103763465      -17.2331560040      -35.1248413562  TIP3      3662            0.0000000000
     29703      3823  TIP3      OH2           -16.3282386938      -32.9042226155      -29.5841891261  TIP3      3663            0.0000000000
     29704      3823  TIP3      H1            -16.2412786393      -33.6301885967      -28.9253115857  TIP3      3663            0.0000000000
     29705      3823  TIP3      H2            -15.9225371160      -33.3422045917      -30.3448041021  TIP3      3663            0.0000000000
     29706      3824  TIP3      OH2           -13.4858992033      -20.8803837976      -25.3151005913  TIP3      3664            0.0000000000
     29707      3824  TIP3      H1            -14.1086808083      -21.4904655182      -25.7388362488  TIP3      3664            0.0000000000
     29708      3824  TIP3      H2            -13.8526198261      -20.8025736880      -24.4202544828  TIP3      3664            0.0000000000
     29709      3825  TIP3      OH2           -10.3697022330      -19.0590862752      -28.7964320930  TIP3      3665            0.0000000000
     29710      3825  TIP3      H1            -10.3136681313      -18.1038582594      -29.0325754144  TIP3      3665            0.0000000000
     29711      3825  TIP3      H2             -9.4896611978      -19.3642084878      -29.0964385284  TIP3      3665            0.0000000000
     29712      3826  TIP3      OH2            -6.4317277151      -18.1879726178      -25.7305002383  TIP3      3666            0.0000000000
     29713      3826  TIP3      H1             -5.9877995071      -18.6894025156      -25.0208964250  TIP3      3666            0.0000000000
     29714      3826  TIP3      H2             -5.6477053699      -17.8297284559      -26.1902199541  TIP3      3666            0.0000000000
     29715      3827  TIP3      OH2            -4.3545093746      -16.9175923403      -27.0483034409  TIP3      3667            0.0000000000
     29716      3827  TIP3      H1             -3.4868879420      -17.3110487588      -27.2777058371  TIP3      3667            0.0000000000
     29717      3827  TIP3      H2             -4.1077566734      -16.4110329736      -26.2407137309  TIP3      3667            0.0000000000
     29718      3828  TIP3      OH2             1.3095125499      -33.9086587340      -27.5181218823  TIP3      3668            0.0000000000
     29719      3828  TIP3      H1              0.7279179406      -33.1801849463      -27.8432032847  TIP3      3668            0.0000000000
     29720      3828  TIP3      H2              0.7421135939      -34.6733031815      -27.7650666640  TIP3      3668            0.0000000000
     29721      3829  TIP3      OH2           -13.0205343444      -16.0356678443      -28.8289506354  TIP3      3669            0.0000000000
     29722      3829  TIP3      H1            -13.8219360159      -15.5673699014      -29.1785959254  TIP3      3669            0.0000000000
     29723      3829  TIP3      H2            -13.2370710627      -15.9159668561      -27.8870323464  TIP3      3669            0.0000000000
     29724      3830  TIP3      OH2           -10.5667303543      -16.4989022224      -29.8368938485  TIP3      3670            0.0000000000
     29725      3830  TIP3      H1            -11.3063241290      -16.0564228815      -29.3632883177  TIP3      3670            0.0000000000
     29726      3830  TIP3      H2            -10.5003194520      -15.8981036984      -30.6249555000  TIP3      3670            0.0000000000
     29727      3831  TIP3      OH2            -6.4711780091      -17.0282468226      -30.5779822716  TIP3      3671            0.0000000000
     29728      3831  TIP3      H1             -7.1081226386      -16.5277412721      -31.1465190180  TIP3      3671            0.0000000000
     29729      3831  TIP3      H2             -6.0930501339      -16.2929812707      -30.0472316237  TIP3      3671            0.0000000000
     29730      3832  TIP3      OH2            -3.6915945784      -17.4569190235      -30.5289752249  TIP3      3672            0.0000000000
     29731      3832  TIP3      H1             -4.5792707916      -17.2724327128      -30.8831804392  TIP3      3672            0.0000000000
     29732      3832  TIP3      H2             -3.6856216881      -16.9380988514      -29.7091109136  TIP3      3672            0.0000000000
     29733      3833  TIP3      OH2            -0.6804046827      -16.6802078950      -29.8737078080  TIP3      3673            0.0000000000
     29734      3833  TIP3      H1             -1.0784194207      -15.9596764603      -30.3946178908  TIP3      3673            0.0000000000
     29735      3833  TIP3      H2             -0.7671689403      -17.4027493267      -30.5376210089  TIP3      3673            0.0000000000
     29736      3834  TIP3      OH2           -13.5956372736      -17.7983711873      -32.0275513975  TIP3      3674            0.0000000000
     29737      3834  TIP3      H1            -14.4573676662      -17.6457172742      -32.4778782647  TIP3      3674            0.0000000000
     29738      3834  TIP3      H2            -13.0734226177      -18.2602055296      -32.7096752933  TIP3      3674            0.0000000000
     29739      3835  TIP3      OH2           -11.4991855022      -19.1230985357      -33.2974065642  TIP3      3675            0.0000000000
     29740      3835  TIP3      H1            -11.6692742466      -20.0047240305      -32.9089833410  TIP3      3675            0.0000000000
     29741      3835  TIP3      H2            -10.6464005520      -18.9124005664      -32.8382120946  TIP3      3675            0.0000000000
     29742      3836  TIP3      OH2            -9.2780672060      -18.8353669139      -31.9182028136  TIP3      3676            0.0000000000
     29743      3836  TIP3      H1             -8.8029494420      -19.6807594352      -31.8619202470  TIP3      3676            0.0000000000
     29744      3836  TIP3      H2             -8.6026867932      -18.2064452541      -31.6238784405  TIP3      3676            0.0000000000
     29745      3837  TIP3      OH2            -4.9981897296      -32.8635279114      -33.7003187999  TIP3      3677            0.0000000000
     29746      3837  TIP3      H1             -5.7406693592      -33.3800416990      -33.3595677941  TIP3      3677            0.0000000000
     29747      3837  TIP3      H2             -4.4095106942      -33.5565702743      -34.0876574851  TIP3      3677            0.0000000000
     29748      3838  TIP3      OH2            -0.7038771414      -33.6844522549      -33.1409587095  TIP3      3678            0.0000000000
     29749      3838  TIP3      H1              0.0923744748      -33.6680622364      -33.7381997468  TIP3      3678            0.0000000000
     29750      3838  TIP3      H2             -1.1417987728      -34.4711485484      -33.5019173895  TIP3      3678            0.0000000000
     29751      3839  TIP3      OH2             1.2048328393      -33.7480184509      -34.9602817651  TIP3      3679            0.0000000000
     29752      3839  TIP3      H1              1.2149076215      -34.3867638700      -35.7184540098  TIP3      3679            0.0000000000
     29753      3839  TIP3      H2              2.0034451810      -33.2343809435      -35.1401309323  TIP3      3679            0.0000000000
     29754      3840  TIP3      OH2           -13.6812741596       34.9611594137      -35.4227087570  TIP3      3680            0.0000000000
     29755      3840  TIP3      H1            -13.8914389491       35.1170343737      -36.3582345085  TIP3      3680            0.0000000000
     29756      3840  TIP3      H2            -13.9756689274       34.0369200807      -35.3337151585  TIP3      3680            0.0000000000
     29757      3841  TIP3      OH2           -14.3852720828      -34.1016234654      -39.0970895710  TIP3      3681            0.0000000000
     29758      3841  TIP3      H1            -14.0139229298      -33.6872302733      -39.9011687332  TIP3      3681            0.0000000000
     29759      3841  TIP3      H2            -15.2603593130      -33.6842798900      -39.0421981841  TIP3      3681            0.0000000000
     29760      3842  TIP3      OH2            -9.0336592058      -34.5189335803      -35.5890249987  TIP3      3682            0.0000000000
     29761      3842  TIP3      H1             -8.1500285530      -34.8489762243      -35.8840002284  TIP3      3682            0.0000000000
     29762      3842  TIP3      H2             -8.7704000470      -34.3577904844      -34.6630574976  TIP3      3682            0.0000000000
     29763      3843  TIP3      OH2            -3.0831765860      -34.3792441644      -34.8882259272  TIP3      3683            0.0000000000
     29764      3843  TIP3      H1             -2.3638149760      -34.5380744655      -35.5415128454  TIP3      3683            0.0000000000
     29765      3843  TIP3      H2             -3.0206620122      -35.2438237232      -34.4304349523  TIP3      3683            0.0000000000
     29766      3844  TIP3      OH2            -2.3613046891      -33.9491402945      -38.9016866060  TIP3      3684            0.0000000000
     29767      3844  TIP3      H1             -3.0283561856      -33.4149733451      -38.4416043207  TIP3      3684            0.0000000000
     29768      3844  TIP3      H2             -2.0948439233      -34.5887712915      -38.2043640441  TIP3      3684            0.0000000000
     29769      3845  TIP3      OH2           -14.8029621211      -18.4576642550      -38.7503985184  TIP3      3685            0.0000000000
     29770      3845  TIP3      H1            -15.6512482482      -18.2494526143      -39.1872953251  TIP3      3685            0.0000000000
     29771      3845  TIP3      H2            -14.5824263394      -17.5814422996      -38.3867185119  TIP3      3685            0.0000000000
     29772      3846  TIP3      OH2           -12.9448810686      -32.6597072500      -41.0656016830  TIP3      3686            0.0000000000
     29773      3846  TIP3      H1            -13.3429886636      -32.3341793893      -41.8978161792  TIP3      3686            0.0000000000
     29774      3846  TIP3      H2            -12.2556937444      -32.0236315413      -40.8535753940  TIP3      3686            0.0000000000
     29775      3847  TIP3      OH2            -7.2207403544      -32.4345869914      -39.2585907860  TIP3      3687            0.0000000000
     29776      3847  TIP3      H1             -6.7286942820      -32.8778630553      -38.5353241861  TIP3      3687            0.0000000000
     29777      3847  TIP3      H2             -6.9153755882      -31.5203167252      -39.0891479222  TIP3      3687            0.0000000000
     29778      3848  TIP3      OH2            -5.6544399501      -16.5139376083      -40.3633064765  TIP3      3688            0.0000000000
     29779      3848  TIP3      H1             -4.7833280893      -16.6786455403      -40.7723797903  TIP3      3688            0.0000000000
     29780      3848  TIP3      H2             -6.0815696118      -17.3154928919      -40.7546905574  TIP3      3688            0.0000000000
     29781      3849  TIP3      OH2             1.0159136760      -18.1825937884      -37.7305912104  TIP3      3689            0.0000000000
     29782      3849  TIP3      H1              0.5221508152      -18.8977117641      -38.1949601850  TIP3      3689            0.0000000000
     29783      3849  TIP3      H2              0.6832004696      -17.4328211903      -38.2657439694  TIP3      3689            0.0000000000
     29784      3850  TIP3      OH2           -14.0060548549      -34.2417158438      -25.1830845274  TIP3      3690            0.0000000000
     29785      3850  TIP3      H1            -14.5611713124      -34.4116445680      -25.9646777259  TIP3      3690            0.0000000000
     29786      3850  TIP3      H2            -13.1413664058      -34.0271207681      -25.6015645624  TIP3      3690            0.0000000000
     29787      3851  TIP3      OH2           -11.1791064207      -34.6968289118      -24.1733619905  TIP3      3691            0.0000000000
     29788      3851  TIP3      H1            -10.4232864288      -34.8895626747      -24.7548954120  TIP3      3691            0.0000000000
     29789      3851  TIP3      H2            -11.8733854149      -35.2475223929      -24.6148549957  TIP3      3691            0.0000000000
     29790      3852  TIP3      OH2           -13.4468258767      -17.8810998480      -41.0050056916  TIP3      3692            0.0000000000
     29791      3852  TIP3      H1            -13.5307169396      -16.9136457407      -40.9342315217  TIP3      3692            0.0000000000
     29792      3852  TIP3      H2            -13.9228152060      -18.1258521521      -40.1822136124  TIP3      3692            0.0000000000
     29793      3853  TIP3      OH2            -2.7347407617       35.1429908356      -23.6909848767  TIP3      3693            0.0000000000
     29794      3853  TIP3      H1             -3.6430298275       34.8549974341      -23.4694040926  TIP3      3693            0.0000000000
     29795      3853  TIP3      H2             -2.5502826778       34.6072188916      -24.4839030284  TIP3      3693            0.0000000000
     29796      3854  TIP3      OH2            -0.4787128685      -18.7351351924      -25.7202136746  TIP3      3694            0.0000000000
     29797      3854  TIP3      H1             -0.9539252883      -18.8663896155      -26.5531613248  TIP3      3694            0.0000000000
     29798      3854  TIP3      H2             -0.6862840490      -17.8084854369      -25.4905154550  TIP3      3694            0.0000000000
     29799      3855  TIP3      OH2            14.7251673202      -25.0324061258      -35.7266709899  TIP3      3695            0.0000000000
     29800      3855  TIP3      H1             14.5541645502      -24.0640855850      -35.6398966833  TIP3      3695            0.0000000000
     29801      3855  TIP3      H2             14.0685416981      -25.2476372807      -36.4167969799  TIP3      3695            0.0000000000
     29802      3856  TIP3      OH2            13.1984029716      -26.3637197680      -32.0376088740  TIP3      3696            0.0000000000
     29803      3856  TIP3      H1             12.9933359940      -27.2294384337      -31.6537587137  TIP3      3696            0.0000000000
     29804      3856  TIP3      H2             12.5494706476      -26.3049974284      -32.7557096384  TIP3      3696            0.0000000000
     29805      3857  TIP3      OH2             5.6136903189      -26.4178288447      -30.7950435439  TIP3      3697            0.0000000000
     29806      3857  TIP3      H1              5.7942576373      -27.0355084704      -30.0651978911  TIP3      3697            0.0000000000
     29807      3857  TIP3      H2              6.2193179830      -25.6665187265      -30.5971026008  TIP3      3697            0.0000000000
     29808      3858  TIP3      OH2            17.0753905547      -22.8394597068      -33.7920873932  TIP3      3698            0.0000000000
     29809      3858  TIP3      H1             16.4963379592      -23.4702041824      -33.3651169363  TIP3      3698            0.0000000000
     29810      3858  TIP3      H2             17.1185092309      -22.1462983820      -33.1127779521  TIP3      3698            0.0000000000
     29811      3859  TIP3      OH2             6.8739578192      -21.1173005563      -32.5905380407  TIP3      3699            0.0000000000
     29812      3859  TIP3      H1              6.3035016168      -21.9015195317      -32.5096334549  TIP3      3699            0.0000000000
     29813      3859  TIP3      H2              7.7468475588      -21.5332877889      -32.4636172625  TIP3      3699            0.0000000000
     29814      3860  TIP3      OH2             3.4173345402      -28.4668304534      -36.6850837968  TIP3      3700            0.0000000000
     29815      3860  TIP3      H1              3.2058405061      -27.5229535405      -36.5315218621  TIP3      3700            0.0000000000
     29816      3860  TIP3      H2              2.7321318484      -28.7158266334      -37.3394694068  TIP3      3700            0.0000000000
     29817      3861  TIP3      OH2             3.8271155653      -26.2089424903      -34.0824946703  TIP3      3701            0.0000000000
     29818      3861  TIP3      H1              4.2569843995      -27.0942560132      -34.0760169596  TIP3      3701            0.0000000000
     29819      3861  TIP3      H2              4.5681158462      -25.5564280831      -34.1750585019  TIP3      3701            0.0000000000
     29820      3862  TIP3      OH2            14.2835450163      -17.3363492796      -33.7562647213  TIP3      3702            0.0000000000
     29821      3862  TIP3      H1             14.6029456153      -18.1864700441      -34.1323642271  TIP3      3702            0.0000000000
     29822      3862  TIP3      H2             13.8822185325      -17.6178847321      -32.9140509409  TIP3      3702            0.0000000000
     29823      3863  TIP3      OH2            11.5591202065      -23.6130188741      -31.5730814478  TIP3      3703            0.0000000000
     29824      3863  TIP3      H1             11.7336743843      -23.8380092131      -32.4915807356  TIP3      3703            0.0000000000
     29825      3863  TIP3      H2             12.0006157551      -22.7478997856      -31.5118232356  TIP3      3703            0.0000000000
     29826      3864  TIP3      OH2            20.3683746705      -31.9569368964      -31.3479683445  TIP3      3704            0.0000000000
     29827      3864  TIP3      H1             20.3978788958      -31.2583018417      -30.6633550236  TIP3      3704            0.0000000000
     29828      3864  TIP3      H2             21.0957104912      -31.6546426645      -31.9208482840  TIP3      3704            0.0000000000
     29829      3865  TIP3      OH2            15.0690456791      -29.0738438390      -31.3076175623  TIP3      3705            0.0000000000
     29830      3865  TIP3      H1             15.5253593556      -29.9340456504      -31.2906095810  TIP3      3705            0.0000000000
     29831      3865  TIP3      H2             15.0675360600      -28.8576652623      -32.2620633053  TIP3      3705            0.0000000000
     29832      3866  TIP3      OH2             8.4964266403      -30.8745282010      -34.5245332954  TIP3      3706            0.0000000000
     29833      3866  TIP3      H1              8.3942558549      -30.0983283246      -35.1132027698  TIP3      3706            0.0000000000
     29834      3866  TIP3      H2              7.8305527666      -31.4556532042      -34.9613169124  TIP3      3706            0.0000000000
     29835      3867  TIP3      OH2            15.6195936286      -31.3709038273      -35.7442410338  TIP3      3707            0.0000000000
     29836      3867  TIP3      H1             16.3518349014      -31.3908346383      -35.0866350753  TIP3      3707            0.0000000000
     29837      3867  TIP3      H2             15.6406376031      -30.4335594863      -36.0007717707  TIP3      3707            0.0000000000
     29838      3868  TIP3      OH2             4.4306925098      -28.8546545815      -33.5167401755  TIP3      3708            0.0000000000
     29839      3868  TIP3      H1              5.2551645116      -29.1324314158      -33.0619385539  TIP3      3708            0.0000000000
     29840      3868  TIP3      H2              4.5970716872      -29.2255684867      -34.4055373659  TIP3      3708            0.0000000000
     29841      3869  TIP3      OH2             9.6468064310      -27.0611151370      -34.1563678859  TIP3      3709            0.0000000000
     29842      3869  TIP3      H1             10.3629472010      -27.6472749379      -33.8158446977  TIP3      3709            0.0000000000
     29843      3869  TIP3      H2              9.2078916921      -27.6775099996      -34.7766239525  TIP3      3709            0.0000000000
     29844      3870  TIP3      OH2            20.7976146661      -30.2606749071      -29.1367064825  TIP3      3710            0.0000000000
     29845      3870  TIP3      H1             20.0988370528      -29.6044048217      -29.3953384943  TIP3      3710            0.0000000000
     29846      3870  TIP3      H2             20.5308596446      -30.4508346659      -28.2287656582  TIP3      3710            0.0000000000
     29847      3871  TIP3      OH2             7.0730420755      -32.0727306394      -30.3272495872  TIP3      3711            0.0000000000
     29848      3871  TIP3      H1              6.6859135708      -31.5061916721      -31.0219054741  TIP3      3711            0.0000000000
     29849      3871  TIP3      H2              6.4701536709      -31.8368701069      -29.5859304492  TIP3      3711            0.0000000000
     29850      3872  TIP3      OH2            13.9407534132      -22.6357182044      -36.6501613212  TIP3      3712            0.0000000000
     29851      3872  TIP3      H1             13.7644430471      -22.6579841400      -37.6133606984  TIP3      3712            0.0000000000
     29852      3872  TIP3      H2             13.6709636685      -21.7065969986      -36.4412659109  TIP3      3712            0.0000000000
     29853      3873  TIP3      OH2             9.7505181048      -24.1826404423      -29.5990528273  TIP3      3713            0.0000000000
     29854      3873  TIP3      H1              8.8109485482      -24.2170014218      -29.8908118836  TIP3      3713            0.0000000000
     29855      3873  TIP3      H2             10.1938156727      -23.9362393015      -30.4340557838  TIP3      3713            0.0000000000
     29856      3874  TIP3      OH2            17.5231323031      -31.2493252901      -33.6432420174  TIP3      3714            0.0000000000
     29857      3874  TIP3      H1             17.0407377759      -31.5209380120      -32.8399361363  TIP3      3714            0.0000000000
     29858      3874  TIP3      H2             18.2400317529      -31.8971860226      -33.6937038683  TIP3      3714            0.0000000000
     29859      3875  TIP3      OH2             6.7404217397      -30.0059389201      -32.3957357520  TIP3      3715            0.0000000000
     29860      3875  TIP3      H1              7.2602119608      -29.3759795838      -31.8503969712  TIP3      3715            0.0000000000
     29861      3875  TIP3      H2              7.3843147415      -30.2893353260      -33.0771453021  TIP3      3715            0.0000000000
     29862      3876  TIP3      OH2             7.9624465227      -21.9913034247      -29.3211420017  TIP3      3716            0.0000000000
     29863      3876  TIP3      H1              7.9323604140      -22.5381011354      -30.1388707640  TIP3      3716            0.0000000000
     29864      3876  TIP3      H2              7.0528220146      -22.1915728493      -29.0173544111  TIP3      3716            0.0000000000
     29865      3877  TIP3      OH2             3.8046419044      -22.8040505587      -38.6036985644  TIP3      3717            0.0000000000
     29866      3877  TIP3      H1              3.8290898660      -22.3636899543      -39.4856497632  TIP3      3717            0.0000000000
     29867      3877  TIP3      H2              3.8614347662      -22.0923577826      -37.9546882821  TIP3      3717            0.0000000000
     29868      3878  TIP3      OH2            17.3006837486      -21.1413256744      -31.6486542809  TIP3      3718            0.0000000000
     29869      3878  TIP3      H1             16.4035914669      -20.9735576293      -31.2805678850  TIP3      3718            0.0000000000
     29870      3878  TIP3      H2             17.4432693633      -20.2501605431      -32.0147519365  TIP3      3718            0.0000000000
     29871      3879  TIP3      OH2            18.0154577204      -33.1484947971      -30.5365495149  TIP3      3719            0.0000000000
     29872      3879  TIP3      H1             17.1840278737      -32.9656854115      -31.0125675381  TIP3      3719            0.0000000000
     29873      3879  TIP3      H2             18.7007346092      -32.9169862943      -31.1897251275  TIP3      3719            0.0000000000
     29874      3880  TIP3      OH2            10.9713520965      -34.4616590088      -33.4686758480  TIP3      3720            0.0000000000
     29875      3880  TIP3      H1             11.3562984599      -35.1553282379      -32.9204252140  TIP3      3720            0.0000000000
     29876      3880  TIP3      H2             10.0441114015      -34.7742845911      -33.4839732609  TIP3      3720            0.0000000000
     29877      3881  TIP3      OH2            15.5870846087      -19.2112985025      -35.3230579829  TIP3      3721            0.0000000000
     29878      3881  TIP3      H1             16.0099373778      -20.0187967197      -35.6915175987  TIP3      3721            0.0000000000
     29879      3881  TIP3      H2             16.3394854255      -18.5708516501      -35.3529916553  TIP3      3721            0.0000000000
     29880      3882  TIP3      OH2            16.7933348600      -21.4371706467      -36.4993089931  TIP3      3722            0.0000000000
     29881      3882  TIP3      H1             16.9166610131      -22.1547616297      -37.1439865830  TIP3      3722            0.0000000000
     29882      3882  TIP3      H2             16.7356583926      -21.9487973040      -35.6701059156  TIP3      3722            0.0000000000
     29883      3883  TIP3      OH2            18.7184530328      -22.7806926101      -27.9179465400  TIP3      3723            0.0000000000
     29884      3883  TIP3      H1             18.5727076858      -23.6320191475      -28.3593032095  TIP3      3723            0.0000000000
     29885      3883  TIP3      H2             18.8641769742      -22.1691255160      -28.6738302152  TIP3      3723            0.0000000000
     29886      3884  TIP3      OH2            13.3307697526      -25.7538972039      -38.0924789439  TIP3      3724            0.0000000000
     29887      3884  TIP3      H1             12.5867536011      -25.1529612582      -38.3182525440  TIP3      3724            0.0000000000
     29888      3884  TIP3      H2             14.0642797541      -25.2532708353      -38.4877111173  TIP3      3724            0.0000000000
     29889      3885  TIP3      OH2            13.1179368188      -26.6568092700      -40.9782330426  TIP3      3725            0.0000000000
     29890      3885  TIP3      H1             13.8198341678      -26.4176203252      -40.3265240938  TIP3      3725            0.0000000000
     29891      3885  TIP3      H2             13.6476734664      -27.1942760725      -41.5824812879  TIP3      3725            0.0000000000
     29892      3886  TIP3      OH2            20.4797109206      -26.3012505845      -30.2623568347  TIP3      3726            0.0000000000
     29893      3886  TIP3      H1             19.7613942512      -25.6260129635      -30.2755872289  TIP3      3726            0.0000000000
     29894      3886  TIP3      H2             21.2080385204      -25.7616293053      -30.6486643172  TIP3      3726            0.0000000000
     29895      3887  TIP3      OH2            16.7568487308      -26.4632674799      -37.2383773007  TIP3      3727            0.0000000000
     29896      3887  TIP3      H1             16.2116057724      -25.9355860569      -36.6127421133  TIP3      3727            0.0000000000
     29897      3887  TIP3      H2             17.5740846864      -26.6632098635      -36.7463444827  TIP3      3727            0.0000000000
     29898      3888  TIP3      OH2            17.2996564250      -26.8442007279      -28.2800481483  TIP3      3728            0.0000000000
     29899      3888  TIP3      H1             17.0007623573      -26.5023846673      -27.4075085988  TIP3      3728            0.0000000000
     29900      3888  TIP3      H2             16.4361327443      -27.1694636490      -28.6319547150  TIP3      3728            0.0000000000
     29901      3889  TIP3      OH2             8.2483756567      -24.9164721080      -35.2297173656  TIP3      3729            0.0000000000
     29902      3889  TIP3      H1              8.1674627537      -25.3418735945      -36.0910705081  TIP3      3729            0.0000000000
     29903      3889  TIP3      H2              8.7882221455      -25.5594733426      -34.7331106651  TIP3      3729            0.0000000000
     29904      3890  TIP3      OH2             9.6372608397      -21.5775631495      -32.6789738845  TIP3      3730            0.0000000000
     29905      3890  TIP3      H1              9.3963449598      -21.7792707861      -33.6057768108  TIP3      3730            0.0000000000
     29906      3890  TIP3      H2              9.8568381994      -22.4419538577      -32.2944845682  TIP3      3730            0.0000000000
     29907      3891  TIP3      OH2             9.2655764927      -26.5518096684      -31.5606589192  TIP3      3731            0.0000000000
     29908      3891  TIP3      H1              9.3548045939      -26.6951875491      -32.5283008834  TIP3      3731            0.0000000000
     29909      3891  TIP3      H2              8.5851629878      -25.8386784244      -31.5416629806  TIP3      3731            0.0000000000
     29910      3892  TIP3      OH2            14.8406418628      -20.6963244052      -30.8827274062  TIP3      3732            0.0000000000
     29911      3892  TIP3      H1             14.6732169234      -19.8404562189      -30.4418874192  TIP3      3732            0.0000000000
     29912      3892  TIP3      H2             14.3797971146      -21.3265978714      -30.3046616475  TIP3      3732            0.0000000000
     29913      3893  TIP3      OH2             9.5342599176      -21.9212152855      -26.9101168798  TIP3      3733            0.0000000000
     29914      3893  TIP3      H1              8.8928619422      -21.3413535096      -26.4899661633  TIP3      3733            0.0000000000
     29915      3893  TIP3      H2              9.1153795970      -22.1114239500      -27.7722751479  TIP3      3733            0.0000000000
     29916      3894  TIP3      OH2            15.6194105375      -26.4784659591      -39.6598175183  TIP3      3734            0.0000000000
     29917      3894  TIP3      H1             16.1598612545      -26.4640713517      -38.8349538388  TIP3      3734            0.0000000000
     29918      3894  TIP3      H2             16.0678339644      -25.8076518263      -40.2296001905  TIP3      3734            0.0000000000
     29919      3895  TIP3      OH2             6.9656305299      -25.1194866145      -28.1339239503  TIP3      3735            0.0000000000
     29920      3895  TIP3      H1              7.1912803518      -24.5295940595      -27.3961020563  TIP3      3735            0.0000000000
     29921      3895  TIP3      H2              6.5389067568      -25.8192346509      -27.6101718208  TIP3      3735            0.0000000000
     29922      3896  TIP3      OH2            13.0719316929      -20.1274192807      -36.1494797245  TIP3      3736            0.0000000000
     29923      3896  TIP3      H1             13.9163577819      -19.6310212939      -36.1160776276  TIP3      3736            0.0000000000
     29924      3896  TIP3      H2             12.6201311284      -19.7706921493      -36.9372887854  TIP3      3736            0.0000000000
     29925      3897  TIP3      OH2             7.3533342074      -19.4829716708      -26.6575756353  TIP3      3737            0.0000000000
     29926      3897  TIP3      H1              7.3618240842      -20.0461999114      -27.4334179380  TIP3      3737            0.0000000000
     29927      3897  TIP3      H2              6.7731449376      -19.9662199050      -26.0485806573  TIP3      3737            0.0000000000
     29928      3898  TIP3      OH2            19.5303128089      -34.5820769507      -39.5722073074  TIP3      3738            0.0000000000
     29929      3898  TIP3      H1             18.5930519761      -34.3353150695      -39.5481176598  TIP3      3738            0.0000000000
     29930      3898  TIP3      H2             20.0060002423      -33.7272815345      -39.6020674415  TIP3      3738            0.0000000000
     29931      3899  TIP3      OH2             7.3351945790      -26.2224210713      -38.0750055919  TIP3      3739            0.0000000000
     29932      3899  TIP3      H1              6.8879890236      -25.4251713796      -38.4421019635  TIP3      3739            0.0000000000
     29933      3899  TIP3      H2              6.5976784541      -26.8416677762      -37.9770973349  TIP3      3739            0.0000000000
     29934      3900  TIP3      OH2            20.4529182020      -20.3302804380      -41.0848482941  TIP3      3740            0.0000000000
     29935      3900  TIP3      H1             20.6210219729      -19.3739083248      -40.9905483982  TIP3      3740            0.0000000000
     29936      3900  TIP3      H2             21.3411562388      -20.6505847087      -41.3449978734  TIP3      3740            0.0000000000
     29937      3901  TIP3      OH2             3.9817674360      -24.0984479155      -28.2524188697  TIP3      3741            0.0000000000
     29938      3901  TIP3      H1              3.4514788696      -23.9698618673      -29.0647891867  TIP3      3741            0.0000000000
     29939      3901  TIP3      H2              3.6844437898      -24.9717861346      -27.9464269459  TIP3      3741            0.0000000000
     29940      3902  TIP3      OH2             3.1750782381      -20.7908323568      -32.7822991873  TIP3      3742            0.0000000000
     29941      3902  TIP3      H1              3.2054143272      -21.5032920060      -32.1150701335  TIP3      3742            0.0000000000
     29942      3902  TIP3      H2              2.7956008843      -20.0790716986      -32.2620236141  TIP3      3742            0.0000000000
     29943      3903  TIP3      OH2            21.0523746142      -20.2996953311      -26.6034032134  TIP3      3743            0.0000000000
     29944      3903  TIP3      H1             20.8917853018      -21.2574257096      -26.5380787425  TIP3      3743            0.0000000000
     29945      3903  TIP3      H2             20.2103415199      -19.9958092482      -26.1870179900  TIP3      3743            0.0000000000
     29946      3904  TIP3      OH2            12.3221750005      -20.0635995927      -28.1457084653  TIP3      3744            0.0000000000
     29947      3904  TIP3      H1             12.2740589881      -19.3508687808      -27.4713756007  TIP3      3744            0.0000000000
     29948      3904  TIP3      H2             12.1777455823      -20.8052224954      -27.5107204827  TIP3      3744            0.0000000000
     29949      3905  TIP3      OH2            13.1171621831      -16.9993644652      -37.8150753460  TIP3      3745            0.0000000000
     29950      3905  TIP3      H1             13.1005174418      -16.7257099198      -38.7604267965  TIP3      3745            0.0000000000
     29951      3905  TIP3      H2             12.8298672375      -16.1616043400      -37.3901377949  TIP3      3745            0.0000000000
     29952      3906  TIP3      OH2             6.4939450371      -18.3644773825      -35.5681525998  TIP3      3746            0.0000000000
     29953      3906  TIP3      H1              6.8481865420      -18.6235326786      -34.6899442993  TIP3      3746            0.0000000000
     29954      3906  TIP3      H2              5.8803838636      -19.1005210521      -35.7756930759  TIP3      3746            0.0000000000
     29955      3907  TIP3      OH2            15.6686620717      -17.5015297843      -40.9525604864  TIP3      3747            0.0000000000
     29956      3907  TIP3      H1             16.3640622424      -18.0591950758      -41.3494569420  TIP3      3747            0.0000000000
     29957      3907  TIP3      H2             15.8279090458      -17.6389713726      -39.9931233290  TIP3      3747            0.0000000000
     29958      3908  TIP3      OH2            15.6649056215      -17.7555173856      -38.2543373514  TIP3      3748            0.0000000000
     29959      3908  TIP3      H1             14.7006730256      -17.6160731956      -38.0881449322  TIP3      3748            0.0000000000
     29960      3908  TIP3      H2             15.8138764868      -18.6036190444      -37.8120604389  TIP3      3748            0.0000000000
     29961      3909  TIP3      OH2            18.2221116036      -29.0537366363      -26.5300551397  TIP3      3749            0.0000000000
     29962      3909  TIP3      H1             17.8543591856      -28.1573654373      -26.5302294760  TIP3      3749            0.0000000000
     29963      3909  TIP3      H2             17.6091980696      -29.4785335786      -27.1696175478  TIP3      3749            0.0000000000
     29964      3910  TIP3      OH2             5.4338012569      -21.9551841951      -28.4471273094  TIP3      3750            0.0000000000
     29965      3910  TIP3      H1              5.3913346010      -21.9126222010      -27.4736416101  TIP3      3750            0.0000000000
     29966      3910  TIP3      H2              4.8460657460      -22.7411213470      -28.5729546508  TIP3      3750            0.0000000000
     29967      3911  TIP3      OH2             8.5446302421      -33.5408399817      -32.0544447848  TIP3      3751            0.0000000000
     29968      3911  TIP3      H1              7.9046387266      -33.6961242767      -32.7681970856  TIP3      3751            0.0000000000
     29969      3911  TIP3      H2              7.9125736367      -33.2686185051      -31.3664661829  TIP3      3751            0.0000000000
     29970      3912  TIP3      OH2            12.5814328722      -33.9704588843      -29.2931206805  TIP3      3752            0.0000000000
     29971      3912  TIP3      H1             13.2798828560      -34.1391834324      -28.6355946392  TIP3      3752            0.0000000000
     29972      3912  TIP3      H2             11.8567935806      -34.5670199444      -29.0198431715  TIP3      3752            0.0000000000
     29973      3913  TIP3      OH2            15.9734322217      -29.6828701908      -27.9759945009  TIP3      3753            0.0000000000
     29974      3913  TIP3      H1             15.4364526871      -30.4231094189      -27.6174225920  TIP3      3753            0.0000000000
     29975      3913  TIP3      H2             15.2350314180      -29.1360254027      -28.2886980470  TIP3      3753            0.0000000000
     29976      3914  TIP3      OH2            16.6819490590      -24.6863537675      -41.3856338453  TIP3      3754            0.0000000000
     29977      3914  TIP3      H1             17.2882270065      -24.4623447529      -42.1282422961  TIP3      3754            0.0000000000
     29978      3914  TIP3      H2             17.2066522769      -24.2524964355      -40.6845198111  TIP3      3754            0.0000000000
     29979      3915  TIP3      OH2            12.5766054125      -31.5402135022      -41.2746613777  TIP3      3755            0.0000000000
     29980      3915  TIP3      H1             12.2328413087      -31.7432506514      -40.3846806653  TIP3      3755            0.0000000000
     29981      3915  TIP3      H2             11.9903309991      -32.1094767501      -41.7831085794  TIP3      3755            0.0000000000
     29982      3916  TIP3      OH2             8.3466684601      -28.8106696033      -30.5639561345  TIP3      3756            0.0000000000
     29983      3916  TIP3      H1              7.5302763452      -28.7122276834      -30.0212854303  TIP3      3756            0.0000000000
     29984      3916  TIP3      H2              8.6099739755      -27.8771866989      -30.7368471639  TIP3      3756            0.0000000000
     29985      3917  TIP3      OH2             8.2191477945      -28.5531637442      -35.8903928440  TIP3      3757            0.0000000000
     29986      3917  TIP3      H1              7.2381786970      -28.5707406675      -35.9072902307  TIP3      3757            0.0000000000
     29987      3917  TIP3      H2              8.4262169638      -28.0952083746      -36.7252929166  TIP3      3757            0.0000000000
     29988      3918  TIP3      OH2            14.0450439801      -28.1463481719      -37.2536658612  TIP3      3758            0.0000000000
     29989      3918  TIP3      H1             13.7426195841      -27.2627146554      -37.5726744980  TIP3      3758            0.0000000000
     29990      3918  TIP3      H2             14.7082817124      -28.3647344076      -37.9434298637  TIP3      3758            0.0000000000
     29991      3919  TIP3      OH2            12.6638090563      -27.9105717642      -25.9349493285  TIP3      3759            0.0000000000
     29992      3919  TIP3      H1             12.0677195696      -28.3124353050      -25.2815413750  TIP3      3759            0.0000000000
     29993      3919  TIP3      H2             13.4098701419      -27.5410167448      -25.4308094683  TIP3      3759            0.0000000000
     29994      3920  TIP3      OH2            15.0458600489      -28.2703728869      -33.9779454042  TIP3      3760            0.0000000000
     29995      3920  TIP3      H1             14.8484460756      -27.5969569982      -34.6556893631  TIP3      3760            0.0000000000
     29996      3920  TIP3      H2             14.6504513924      -29.0426922381      -34.3985392156  TIP3      3760            0.0000000000
     29997      3921  TIP3      OH2             5.9000060695      -28.8603342273      -29.3964522347  TIP3      3761            0.0000000000
     29998      3921  TIP3      H1              6.0683673152      -28.4690014160      -28.5050063658  TIP3      3761            0.0000000000
     29999      3921  TIP3      H2              5.4034465627      -29.6432036082      -29.1081078624  TIP3      3761            0.0000000000
     30000      3922  TIP3      OH2             9.5344236989      -30.8852796116      -41.6945126060  TIP3      3762            0.0000000000
     30001      3922  TIP3      H1              8.9739399428      -31.4008940894      -41.0744572247  TIP3      3762            0.0000000000
     30002      3922  TIP3      H2              9.2571367975      -29.9680612023      -41.5182373995  TIP3      3762            0.0000000000
     30003      3923  TIP3      OH2             3.2255368575      -31.7405638627      -34.9234264627  TIP3      3763            0.0000000000
     30004      3923  TIP3      H1              4.0595834716      -31.5486933030      -34.4896251049  TIP3      3763            0.0000000000
     30005      3923  TIP3      H2              3.4386878123      -31.5726239932      -35.8735418463  TIP3      3763            0.0000000000
     30006      3924  TIP3      OH2             3.7392543464      -30.5345789302      -40.1985318898  TIP3      3764            0.0000000000
     30007      3924  TIP3      H1              4.3464201998      -30.1841509638      -40.8831562252  TIP3      3764            0.0000000000
     30008      3924  TIP3      H2              3.2748351571      -29.7246434077      -39.9444112727  TIP3      3764            0.0000000000
     30009      3925  TIP3      OH2            14.8194928763      -27.2159262457      -29.2969605330  TIP3      3765            0.0000000000
     30010      3925  TIP3      H1             14.7545243151      -27.9037682211      -29.9995332085  TIP3      3765            0.0000000000
     30011      3925  TIP3      H2             13.8943498011      -27.1862644125      -28.9840745988  TIP3      3765            0.0000000000
     30012      3926  TIP3      OH2            11.1458094161      -30.9378736209      -35.2015768215  TIP3      3766            0.0000000000
     30013      3926  TIP3      H1             10.1848925079      -31.0218577010      -35.0205871747  TIP3      3766            0.0000000000
     30014      3926  TIP3      H2             11.4453445101      -30.7146275595      -34.2981884730  TIP3      3766            0.0000000000
     30015      3927  TIP3      OH2             5.5502735115      -29.7347258444      -35.7914275556  TIP3      3767            0.0000000000
     30016      3927  TIP3      H1              4.8245768051      -29.4207936565      -36.3798576165  TIP3      3767            0.0000000000
     30017      3927  TIP3      H2              5.8550072916      -30.5493798609      -36.2443268835  TIP3      3767            0.0000000000
     30018      3928  TIP3      OH2             9.3224066755      -29.5026601789      -38.5674206383  TIP3      3768            0.0000000000
     30019      3928  TIP3      H1             10.2813513904      -29.3972585370      -38.4782399540  TIP3      3768            0.0000000000
     30020      3928  TIP3      H2              9.0690316996      -28.8986290138      -39.3112264346  TIP3      3768            0.0000000000
     30021      3929  TIP3      OH2            15.7985736876      -31.7766995781      -31.5292085184  TIP3      3769            0.0000000000
     30022      3929  TIP3      H1             15.3406607417      -31.5107988198      -30.7005491586  TIP3      3769            0.0000000000
     30023      3929  TIP3      H2             15.2061568653      -32.4875171164      -31.8192981069  TIP3      3769            0.0000000000
     30024      3930  TIP3      OH2             8.4677950266      -28.3177715862      -40.8426936799  TIP3      3770            0.0000000000
     30025      3930  TIP3      H1              7.7591138522      -28.3837187283      -41.5056476100  TIP3      3770            0.0000000000
     30026      3930  TIP3      H2              9.1788368283      -27.8699026131      -41.3559439227  TIP3      3770            0.0000000000
     30027      3931  TIP3      OH2            18.4894452911      -16.4387220699      -25.1327336011  TIP3      3771            0.0000000000
     30028      3931  TIP3      H1             18.5970909264      -15.7474941552      -25.8090584195  TIP3      3771            0.0000000000
     30029      3931  TIP3      H2             19.2448138794      -16.2629735110      -24.5565085297  TIP3      3771            0.0000000000
     30030      3932  TIP3      OH2             6.7251739713      -24.0632265516      -25.5178724697  TIP3      3772            0.0000000000
     30031      3932  TIP3      H1              7.5318489595      -24.1867366624      -24.9678388554  TIP3      3772            0.0000000000
     30032      3932  TIP3      H2              6.1026516055      -23.7823911174      -24.8366951885  TIP3      3772            0.0000000000
     30033      3933  TIP3      OH2            11.6600353739      -28.5704828869      -33.0854284564  TIP3      3773            0.0000000000
     30034      3933  TIP3      H1             12.6224915058      -28.6312296562      -33.1862364788  TIP3      3773            0.0000000000
     30035      3933  TIP3      H2             11.4723522672      -29.1466474225      -32.3198871168  TIP3      3773            0.0000000000
     30036      3934  TIP3      OH2             6.8460628784      -31.9481692359      -36.3407455280  TIP3      3774            0.0000000000
     30037      3934  TIP3      H1              6.3233427270      -32.6844235490      -35.9800785442  TIP3      3774            0.0000000000
     30038      3934  TIP3      H2              7.1046223480      -32.2659268734      -37.2167441885  TIP3      3774            0.0000000000
     30039      3935  TIP3      OH2            10.6143564120      -30.2526277729      -30.6477468454  TIP3      3775            0.0000000000
     30040      3935  TIP3      H1              9.8304927534      -29.6469116171      -30.6014342754  TIP3      3775            0.0000000000
     30041      3935  TIP3      H2             11.2381581058      -29.8163459405      -30.0312662697  TIP3      3775            0.0000000000
     30042      3936  TIP3      OH2            11.4445277915      -23.8930385614      -38.5137085909  TIP3      3776            0.0000000000
     30043      3936  TIP3      H1             10.6796827213      -24.4158472423      -38.8301085149  TIP3      3776            0.0000000000
     30044      3936  TIP3      H2             11.0893613226      -23.5183781110      -37.6667029597  TIP3      3776            0.0000000000
     30045      3937  TIP3      OH2            18.6375426580      -24.4230776819      -30.3180053212  TIP3      3777            0.0000000000
     30046      3937  TIP3      H1             19.2648025975      -23.7098470684      -30.5771349072  TIP3      3777            0.0000000000
     30047      3937  TIP3      H2             18.1836909317      -24.5497735201      -31.1671763654  TIP3      3777            0.0000000000
     30048      3938  TIP3      OH2            15.1480057120      -30.7382388994      -41.1296012035  TIP3      3778            0.0000000000
     30049      3938  TIP3      H1             14.2051302854      -31.0050727166      -41.1438185602  TIP3      3778            0.0000000000
     30050      3938  TIP3      H2             15.2045149451      -30.1551047085      -40.3521378999  TIP3      3778            0.0000000000
     30051      3939  TIP3      OH2            13.3428009658      -23.2170350680      -27.5179746216  TIP3      3779            0.0000000000
     30052      3939  TIP3      H1             12.6348125206      -23.8361823548      -27.2781749603  TIP3      3779            0.0000000000
     30053      3939  TIP3      H2             13.2672659925      -22.6115750673      -26.7373274339  TIP3      3779            0.0000000000
     30054      3940  TIP3      OH2            15.9757809986      -29.1294487663      -38.9890686940  TIP3      3780            0.0000000000
     30055      3940  TIP3      H1             16.6667341209      -28.9481873529      -38.3287078913  TIP3      3780            0.0000000000
     30056      3940  TIP3      H2             16.1400638715      -28.4176095754      -39.6306564260  TIP3      3780            0.0000000000
     30057      3941  TIP3      OH2             5.7374203070      -24.2756939206      -33.9579928806  TIP3      3781            0.0000000000
     30058      3941  TIP3      H1              6.5594130177      -24.5506042697      -34.3939660950  TIP3      3781            0.0000000000
     30059      3941  TIP3      H2              6.0570760904      -24.2000158395      -33.0258239616  TIP3      3781            0.0000000000
     30060      3942  TIP3      OH2            13.4235031613      -22.4879438882      -39.5177004150  TIP3      3782            0.0000000000
     30061      3942  TIP3      H1             12.9895481499      -21.6391671043      -39.2608338900  TIP3      3782            0.0000000000
     30062      3942  TIP3      H2             12.7353316723      -23.1547598400      -39.2967948047  TIP3      3782            0.0000000000
     30063      3943  TIP3      OH2             2.9631866687      -26.5269838471      -27.6313301886  TIP3      3783            0.0000000000
     30064      3943  TIP3      H1              3.6346032061      -26.6616231860      -26.9364942882  TIP3      3783            0.0000000000
     30065      3943  TIP3      H2              3.4575687519      -26.7615496369      -28.4307171716  TIP3      3783            0.0000000000
     30066      3944  TIP3      OH2            10.0556848374      -27.0175504866      -25.3838886205  TIP3      3784            0.0000000000
     30067      3944  TIP3      H1              9.8571068206      -27.3040183416      -26.2984811657  TIP3      3784            0.0000000000
     30068      3944  TIP3      H2             10.9931896356      -26.7979296234      -25.4177297896  TIP3      3784            0.0000000000
     30069      3945  TIP3      OH2            15.1245875019      -20.9766657647      -27.4952108963  TIP3      3785            0.0000000000
     30070      3945  TIP3      H1             14.1952096759      -20.8645067727      -27.7730327324  TIP3      3785            0.0000000000
     30071      3945  TIP3      H2             15.0705681907      -20.5220432135      -26.6394667007  TIP3      3785            0.0000000000
     30072      3946  TIP3      OH2            20.0429391346      -28.8864684108      -38.5820728530  TIP3      3786            0.0000000000
     30073      3946  TIP3      H1             20.2331116653      -29.5603102899      -39.2646849037  TIP3      3786            0.0000000000
     30074      3946  TIP3      H2             20.2503658027      -28.0865346343      -39.1143850240  TIP3      3786            0.0000000000
     30075      3947  TIP3      OH2            21.0124783930      -22.9571846656      -26.4806480643  TIP3      3787            0.0000000000
     30076      3947  TIP3      H1             20.1101940259      -22.7449079057      -26.8338816160  TIP3      3787            0.0000000000
     30077      3947  TIP3      H2             21.5091967246      -23.0850759407      -27.3191174845  TIP3      3787            0.0000000000
     30078      3948  TIP3      OH2            18.8605925155      -20.0898409385      -38.9778058376  TIP3      3788            0.0000000000
     30079      3948  TIP3      H1             18.9234319654      -20.9036445521      -38.4607032980  TIP3      3788            0.0000000000
     30080      3948  TIP3      H2             19.3871130238      -20.3137569123      -39.7836966912  TIP3      3788            0.0000000000
     30081      3949  TIP3      OH2            16.4602278228      -25.3265714348      -32.2338067171  TIP3      3789            0.0000000000
     30082      3949  TIP3      H1             15.6125441658      -25.3861154904      -32.7115023916  TIP3      3789            0.0000000000
     30083      3949  TIP3      H2             16.9713376702      -26.0263339423      -32.7128607814  TIP3      3789            0.0000000000
     30084      3950  TIP3      OH2             8.6325432976      -20.9502523282      -35.4713707373  TIP3      3790            0.0000000000
     30085      3950  TIP3      H1              8.9348025694      -20.0945627487      -35.8574363254  TIP3      3790            0.0000000000
     30086      3950  TIP3      H2              7.7389876970      -21.0344837324      -35.8428277417  TIP3      3790            0.0000000000
     30087      3951  TIP3      OH2             4.8303038913      -25.6304489300      -41.5282388880  TIP3      3791            0.0000000000
     30088      3951  TIP3      H1              5.2687582558      -25.1975033811      -40.7664728468  TIP3      3791            0.0000000000
     30089      3951  TIP3      H2              3.9362611068      -25.7882192623      -41.1641969095  TIP3      3791            0.0000000000
     30090      3952  TIP3      OH2            10.0973005759      -23.0922823145      -36.3915677561  TIP3      3792            0.0000000000
     30091      3952  TIP3      H1              9.6566958500      -22.2566304616      -36.1021558983  TIP3      3792            0.0000000000
     30092      3952  TIP3      H2              9.6823050950      -23.7550676288      -35.8088722733  TIP3      3792            0.0000000000
     30093      3953  TIP3      OH2            10.7308585663      -18.3050732122      -29.7675874148  TIP3      3793            0.0000000000
     30094      3953  TIP3      H1             11.3488790513      -17.5891780627      -29.5579225794  TIP3      3793            0.0000000000
     30095      3953  TIP3      H2             11.1745974053      -19.0182826216      -29.2640672456  TIP3      3793            0.0000000000
     30096      3954  TIP3      OH2             9.0303398640      -18.3125351115      -36.4890115317  TIP3      3794            0.0000000000
     30097      3954  TIP3      H1              8.0814531497      -18.4224694414      -36.7044701885  TIP3      3794            0.0000000000
     30098      3954  TIP3      H2              8.9826103134      -17.4234045397      -36.1169935403  TIP3      3794            0.0000000000
     30099      3955  TIP3      OH2            13.7978584967      -23.1916380699      -30.0818628236  TIP3      3795            0.0000000000
     30100      3955  TIP3      H1             13.7916410851      -22.7867154727      -29.1821466245  TIP3      3795            0.0000000000
     30101      3955  TIP3      H2             13.0233978869      -23.7712981575      -29.9576806577  TIP3      3795            0.0000000000
     30102      3956  TIP3      OH2            16.6605053703      -21.7934799997      -40.5998911165  TIP3      3796            0.0000000000
     30103      3956  TIP3      H1             17.0849578814      -22.1922350078      -39.8130413604  TIP3      3796            0.0000000000
     30104      3956  TIP3      H2             15.8477006249      -22.3243134665      -40.6435490571  TIP3      3796            0.0000000000
     30105      3957  TIP3      OH2            17.2197083915      -18.5205529832      -27.6586830979  TIP3      3797            0.0000000000
     30106      3957  TIP3      H1             16.3583289654      -18.9560554248      -27.7995425013  TIP3      3797            0.0000000000
     30107      3957  TIP3      H2             17.1773975611      -17.8302612189      -28.3481971214  TIP3      3797            0.0000000000
     30108      3958  TIP3      OH2            20.9995982496      -17.6693140511      -40.7749777573  TIP3      3798            0.0000000000
     30109      3958  TIP3      H1             21.6572643482      -17.0488782077      -41.1454820532  TIP3      3798            0.0000000000
     30110      3958  TIP3      H2             20.3085956061      -17.0691646362      -40.4231562455  TIP3      3798            0.0000000000
     30111      3959  TIP3      OH2             5.4142600000      -31.2576754464      -27.8895701571  TIP3      3799            0.0000000000
     30112      3959  TIP3      H1              5.0086478431      -30.6713984295      -27.2058432249  TIP3      3799            0.0000000000
     30113      3959  TIP3      H2              4.8294189824      -32.0300799060      -27.8892518743  TIP3      3799            0.0000000000
     30114      3960  TIP3      OH2            17.5392930198      -23.4568567085      -38.5281315016  TIP3      3800            0.0000000000
     30115      3960  TIP3      H1             17.7103827301      -24.4078802396      -38.6577466772  TIP3      3800            0.0000000000
     30116      3960  TIP3      H2             18.3661437380      -23.2039164462      -38.0554411008  TIP3      3800            0.0000000000
     30117      3961  TIP3      OH2             4.8117678431      -19.5439230462      -29.7503956510  TIP3      3801            0.0000000000
     30118      3961  TIP3      H1              5.3357929560      -20.0991568649      -30.3523452418  TIP3      3801            0.0000000000
     30119      3961  TIP3      H2              4.5838391599      -20.2434522349      -29.0944986503  TIP3      3801            0.0000000000
     30120      3962  TIP3      OH2             9.7257516083      -21.3903208367      -40.2551829508  TIP3      3802            0.0000000000
     30121      3962  TIP3      H1             10.3174461812      -21.8214341607      -39.6146224543  TIP3      3802            0.0000000000
     30122      3962  TIP3      H2              9.3857452677      -20.6089558586      -39.7680907369  TIP3      3802            0.0000000000
     30123      3963  TIP3      OH2             5.9940583930      -24.3371928814      -39.4623756054  TIP3      3803            0.0000000000
     30124      3963  TIP3      H1              5.4164278583      -23.7267510107      -38.9567308121  TIP3      3803            0.0000000000
     30125      3963  TIP3      H2              6.5503290317      -23.7312368343      -39.9798248815  TIP3      3803            0.0000000000
     30126      3964  TIP3      OH2            14.2444369367      -31.8056596790      -29.2008102530  TIP3      3804            0.0000000000
     30127      3964  TIP3      H1             14.7249193573      -32.5272638564      -28.7344229596  TIP3      3804            0.0000000000
     30128      3964  TIP3      H2             13.4924280657      -32.3131242120      -29.5556554729  TIP3      3804            0.0000000000
     30129      3965  TIP3      OH2            14.6443753064      -32.1782206762      -38.0704296787  TIP3      3805            0.0000000000
     30130      3965  TIP3      H1             14.4920329900      -31.2689173470      -38.3871429645  TIP3      3805            0.0000000000
     30131      3965  TIP3      H2             15.0033201009      -32.0085546301      -37.1754124488  TIP3      3805            0.0000000000
     30132      3966  TIP3      OH2            12.5779365036      -20.0271634659      -38.8394879153  TIP3      3806            0.0000000000
     30133      3966  TIP3      H1             12.0338085595      -19.2109862011      -38.7275474822  TIP3      3806            0.0000000000
     30134      3966  TIP3      H2             13.1800518005      -19.7091365843      -39.5422179958  TIP3      3806            0.0000000000
     30135      3967  TIP3      OH2            12.1263638036      -30.2217564332      -37.6604100998  TIP3      3807            0.0000000000
     30136      3967  TIP3      H1             12.5519611872      -29.3426835043      -37.6060957059  TIP3      3807            0.0000000000
     30137      3967  TIP3      H2             11.6962569355      -30.3110934298      -36.7808709944  TIP3      3807            0.0000000000
     30138      3968  TIP3      OH2            12.4497269713      -29.0070988767      -28.8043249234  TIP3      3808            0.0000000000
     30139      3968  TIP3      H1             12.1793074508      -28.4199355840      -28.0655823423  TIP3      3808            0.0000000000
     30140      3968  TIP3      H2             12.7547962584      -29.8178156165      -28.3813008746  TIP3      3808            0.0000000000
     30141      3969  TIP3      OH2            12.6604378648      -33.4193383327      -36.4168728570  TIP3      3809            0.0000000000
     30142      3969  TIP3      H1             12.2770777903      -32.5566918160      -36.1843436528  TIP3      3809            0.0000000000
     30143      3969  TIP3      H2             13.1766753346      -33.1653705803      -37.2011886450  TIP3      3809            0.0000000000
     30144      3970  TIP3      OH2            10.5986896691      -18.1068454793      -38.6256205247  TIP3      3810            0.0000000000
     30145      3970  TIP3      H1              9.9476557478      -18.3054914496      -39.3275350348  TIP3      3810            0.0000000000
     30146      3970  TIP3      H2              9.9951460848      -18.1732271589      -37.8512169078  TIP3      3810            0.0000000000
     30147      3971  TIP3      OH2             8.3818737779      -32.0890781824      -39.5249450746  TIP3      3811            0.0000000000
     30148      3971  TIP3      H1              8.4312983325      -31.1667145423      -39.1964334489  TIP3      3811            0.0000000000
     30149      3971  TIP3      H2              9.2456847231      -32.4166265430      -39.2100285399  TIP3      3811            0.0000000000
     30150      3972  TIP3      OH2            18.3712265696      -31.8961044431      -28.0595074868  TIP3      3812            0.0000000000
     30151      3972  TIP3      H1             17.8777319080      -31.1025648117      -28.3252167341  TIP3      3812            0.0000000000
     30152      3972  TIP3      H2             18.3990157891      -32.3603172467      -28.9255161408  TIP3      3812            0.0000000000
     30153      3973  TIP3      OH2            17.4891029645      -27.3084343846      -33.5743610780  TIP3      3813            0.0000000000
     30154      3973  TIP3      H1             16.6431195514      -27.7949700685      -33.6953118324  TIP3      3813            0.0000000000
     30155      3973  TIP3      H2             18.0550458462      -27.9993737164      -33.1602270807  TIP3      3813            0.0000000000
     30156      3974  TIP3      OH2             6.5475714830      -21.3756712171      -41.0617280739  TIP3      3814            0.0000000000
     30157      3974  TIP3      H1              6.8510614893      -20.7391793200      -40.3731532984  TIP3      3814            0.0000000000
     30158      3974  TIP3      H2              7.3599188958      -21.8691977733      -41.2659218238  TIP3      3814            0.0000000000
     30159      3975  TIP3      OH2             4.5512874749      -28.2059604716      -41.9153785625  TIP3      3815            0.0000000000
     30160      3975  TIP3      H1              4.9692573278      -27.3574099987      -41.6730406808  TIP3      3815            0.0000000000
     30161      3975  TIP3      H2              3.6608532422      -27.8988352174      -42.1895114591  TIP3      3815            0.0000000000
     30162      3976  TIP3      OH2            18.2604613312      -18.3230048648      -31.8172441152  TIP3      3816            0.0000000000
     30163      3976  TIP3      H1             18.3513834614      -17.6010965991      -32.4770632538  TIP3      3816            0.0000000000
     30164      3976  TIP3      H2             19.1775671144      -18.4787468712      -31.5471905084  TIP3      3816            0.0000000000
     30165      3977  TIP3      OH2             6.0449742602      -33.5390514701      -33.3576747537  TIP3      3817            0.0000000000
     30166      3977  TIP3      H1              5.5684664542      -33.8783631347      -34.1494317394  TIP3      3817            0.0000000000
     30167      3977  TIP3      H2              5.9729065887      -34.3016223742      -32.7397616797  TIP3      3817            0.0000000000
     30168      3978  TIP3      OH2             4.8548930267      -20.1850540590      -36.6722187034  TIP3      3818            0.0000000000
     30169      3978  TIP3      H1              3.9000739010      -20.1405395622      -36.6822411130  TIP3      3818            0.0000000000
     30170      3978  TIP3      H2              5.0389347091      -19.8274635314      -37.5654416215  TIP3      3818            0.0000000000
     30171      3979  TIP3      OH2             4.0063981570      -17.4712642057      -25.3984415102  TIP3      3819            0.0000000000
     30172      3979  TIP3      H1              4.8427405967      -17.6499200625      -24.9412855447  TIP3      3819            0.0000000000
     30173      3979  TIP3      H2              3.4666679679      -18.2079900299      -25.0212908747  TIP3      3819            0.0000000000
     30174      3980  TIP3      OH2             9.4295392402      -18.4114583517      -23.8506542298  TIP3      3820            0.0000000000
     30175      3980  TIP3      H1              9.9555680802      -19.2348822407      -23.8145372930  TIP3      3820            0.0000000000
     30176      3980  TIP3      H2              8.5617234619      -18.8066863880      -23.5936252204  TIP3      3820            0.0000000000
     30177      3981  TIP3      OH2            13.5449116654      -19.0938370942      -41.3899354441  TIP3      3821            0.0000000000
     30178      3981  TIP3      H1             13.1047108912      -19.7032499380      -41.9986471265  TIP3      3821            0.0000000000
     30179      3981  TIP3      H2             14.2385543077      -18.6542071378      -41.9336662531  TIP3      3821            0.0000000000
     30180      3982  TIP3      OH2            15.0943568940      -19.3340386867      -25.1123946911  TIP3      3822            0.0000000000
     30181      3982  TIP3      H1             14.5249684851      -20.1343285471      -25.1289403726  TIP3      3822            0.0000000000
     30182      3982  TIP3      H2             15.8539059776      -19.5963827898      -24.5714575578  TIP3      3822            0.0000000000
     30183      3983  TIP3      OH2            17.5917847086      -19.2129277855      -42.0150399411  TIP3      3823            0.0000000000
     30184      3983  TIP3      H1             17.2749925535      -19.9657992140      -41.4764897830  TIP3      3823            0.0000000000
     30185      3983  TIP3      H2             18.4087902526      -19.5945783435      -42.4072552810  TIP3      3823            0.0000000000
     30186      3984  TIP3      OH2             3.2629553045      -23.6317040533      -24.1670224906  TIP3      3824            0.0000000000
     30187      3984  TIP3      H1              3.5510177581      -24.4133246316      -24.6861680359  TIP3      3824            0.0000000000
     30188      3984  TIP3      H2              3.3549790012      -22.9379232568      -24.8354368461  TIP3      3824            0.0000000000
     30189      3985  TIP3      OH2             8.2879399059      -23.7513238375      -42.0979768853  TIP3      3825            0.0000000000
     30190      3985  TIP3      H1              8.8837501949      -23.7615274491      -41.3262049764  TIP3      3825            0.0000000000
     30191      3985  TIP3      H2              8.8919190100      -24.0625720411      -42.8049897750  TIP3      3825            0.0000000000
     30192      3986  TIP3      OH2            10.4546379348      -24.2723556934      -25.7741361988  TIP3      3826            0.0000000000
     30193      3986  TIP3      H1              9.9348072218      -23.5876349466      -26.2559662819  TIP3      3826            0.0000000000
     30194      3986  TIP3      H2              9.9080819227      -25.0806584915      -25.7167713949  TIP3      3826            0.0000000000
     30195      3987  TIP3      OH2            16.1478587726      -23.5633102613      -27.6373670892  TIP3      3827            0.0000000000
     30196      3987  TIP3      H1             16.8206203249      -22.8807093351      -27.4162753389  TIP3      3827            0.0000000000
     30197      3987  TIP3      H2             15.3188820274      -23.0454257257      -27.5044962851  TIP3      3827            0.0000000000
     30198      3988  TIP3      OH2             4.1743125709      -25.9855824739      -25.0670330823  TIP3      3828            0.0000000000
     30199      3988  TIP3      H1              4.8608279528      -26.5419753311      -25.5084612900  TIP3      3828            0.0000000000
     30200      3988  TIP3      H2              4.1630687895      -26.4363955545      -24.2147431515  TIP3      3828            0.0000000000
     30201      3989  TIP3      OH2             9.4693062615      -25.3038121823      -39.8906194116  TIP3      3829            0.0000000000
     30202      3989  TIP3      H1              8.7560094235      -25.8094137996      -39.4510845226  TIP3      3829            0.0000000000
     30203      3989  TIP3      H2              9.8448365363      -25.9588608654      -40.5030151170  TIP3      3829            0.0000000000
     30204      3990  TIP3      OH2             9.1293704295      -27.6195294150      -27.8057394573  TIP3      3830            0.0000000000
     30205      3990  TIP3      H1              8.1671345315      -27.4183059574      -27.7528552081  TIP3      3830            0.0000000000
     30206      3990  TIP3      H2              9.4574568165      -26.9854369781      -28.4651818669  TIP3      3830            0.0000000000
     30207      3991  TIP3      OH2            10.6152747997      -27.1316744323      -42.0673524282  TIP3      3831            0.0000000000
     30208      3991  TIP3      H1             10.8832557525      -26.7782591771      -42.9283911721  TIP3      3831            0.0000000000
     30209      3991  TIP3      H2             11.4877343501      -27.0948434984      -41.5898864785  TIP3      3831            0.0000000000
     30210      3992  TIP3      OH2            14.1062690901      -25.2095409973      -24.4354641490  TIP3      3832            0.0000000000
     30211      3992  TIP3      H1             14.8717437365      -24.8867767268      -23.9393468617  TIP3      3832            0.0000000000
     30212      3992  TIP3      H2             13.4803583579      -25.3903653245      -23.6883698798  TIP3      3832            0.0000000000
     30213      3993  TIP3      OH2            18.9552828664      -24.2321839370       42.0640858427  TIP3      3833            0.0000000000
     30214      3993  TIP3      H1             19.3939709714      -25.0362491695       41.7371235894  TIP3      3833            0.0000000000
     30215      3993  TIP3      H2             19.6500306484      -23.8355565813       42.5967565341  TIP3      3833            0.0000000000
     30216      3994  TIP3      OH2            10.0684352043      -30.1008489213      -27.3398787975  TIP3      3834            0.0000000000
     30217      3994  TIP3      H1              9.1957282854      -30.5162010640      -27.3542468563  TIP3      3834            0.0000000000
     30218      3994  TIP3      H2              9.8278503347      -29.1917476725      -27.6335469789  TIP3      3834            0.0000000000
     30219      3995  TIP3      OH2             9.3976337259      -32.1995178746      -28.8735628536  TIP3      3835            0.0000000000
     30220      3995  TIP3      H1              9.7073488040      -31.2831514012      -29.0488680924  TIP3      3835            0.0000000000
     30221      3995  TIP3      H2              8.5306689692      -32.1910374930      -29.3383085258  TIP3      3835            0.0000000000
     30222      3996  TIP3      OH2            11.4363494030      -25.9484162086      -28.7660979034  TIP3      3836            0.0000000000
     30223      3996  TIP3      H1             11.7058069751      -25.9817686474      -29.6881516592  TIP3      3836            0.0000000000
     30224      3996  TIP3      H2             10.7656349148      -25.2169245081      -28.8073580406  TIP3      3836            0.0000000000
     30225      3997  TIP3      OH2            15.3431221736      -28.3792213559      -23.5125730061  TIP3      3837            0.0000000000
     30226      3997  TIP3      H1             16.2739916291      -28.5715406222      -23.3661575539  TIP3      3837            0.0000000000
     30227      3997  TIP3      H2             15.2441305245      -27.5626151415      -22.9885712721  TIP3      3837            0.0000000000
     30228      3998  TIP3      OH2            16.7422355139      -25.8976858374      -25.8052506484  TIP3      3838            0.0000000000
     30229      3998  TIP3      H1             16.0385996328      -25.2228158509      -25.6839247270  TIP3      3838            0.0000000000
     30230      3998  TIP3      H2             17.5524872386      -25.3712628902      -25.8798510644  TIP3      3838            0.0000000000
     30231      3999  TIP3      OH2             7.8214993091      -29.6629096286      -24.7201987953  TIP3      3839            0.0000000000
     30232      3999  TIP3      H1              6.9016820298      -29.9674019421      -24.5555376251  TIP3      3839            0.0000000000
     30233      3999  TIP3      H2              7.6259281089      -28.8986957327      -25.2965670222  TIP3      3839            0.0000000000
     30234      4000  TIP3      OH2            10.0068823831      -34.7204300075      -29.0072266276  TIP3      3840            0.0000000000
     30235      4000  TIP3      H1              9.8452336904      -33.7495923308      -28.9310254082  TIP3      3840            0.0000000000
     30236      4000  TIP3      H2              9.0704842063      -35.0252881513      -29.0314852430  TIP3      3840            0.0000000000
     30237      4001  TIP3      OH2            11.1382494773      -30.4294752430      -24.7910104274  TIP3      3841            0.0000000000
     30238      4001  TIP3      H1             10.3600701184      -30.3654645220      -24.1928942397  TIP3      3841            0.0000000000
     30239      4001  TIP3      H2             10.6945253707      -30.3310551212      -25.6639605285  TIP3      3841            0.0000000000
     30240      4002  TIP3      OH2            14.1545531322      -31.2865481912      -26.3607044159  TIP3      3842            0.0000000000
     30241      4002  TIP3      H1             13.2151882381      -31.3147395397      -26.6054813158  TIP3      3842            0.0000000000
     30242      4002  TIP3      H2             14.4686185205      -32.1621394468      -26.6896605729  TIP3      3842            0.0000000000
     30243      4003  TIP3      OH2            15.8106252587      -31.7771421172      -23.1193714022  TIP3      3843            0.0000000000
     30244      4003  TIP3      H1             15.9561847328      -32.7254214857      -23.3208255969  TIP3      3843            0.0000000000
     30245      4003  TIP3      H2             15.7832889021      -31.8110385460      -22.1426176771  TIP3      3843            0.0000000000
     30246      4004  TIP3      OH2             5.5076408781      -30.9579274280      -24.4063511567  TIP3      3844            0.0000000000
     30247      4004  TIP3      H1              5.5083024575      -31.8867467658      -24.7288639506  TIP3      3844            0.0000000000
     30248      4004  TIP3      H2              4.9206047407      -30.9940374918      -23.6055402315  TIP3      3844            0.0000000000
     30249      4005  TIP3      OH2            10.9184707770      -34.1490752234      -26.0889837086  TIP3      3845            0.0000000000
     30250      4005  TIP3      H1             11.6790906703      -34.6279147477      -25.7111276459  TIP3      3845            0.0000000000
     30251      4005  TIP3      H2             11.2591958232      -33.8839942896      -26.9513227242  TIP3      3845            0.0000000000
     30252      4006  TIP3      OH2            10.6070243210      -33.6332879358      -23.4259227371  TIP3      3846            0.0000000000
     30253      4006  TIP3      H1             10.6799150643      -33.8549714551      -24.3753227805  TIP3      3846            0.0000000000
     30254      4006  TIP3      H2             10.2156629963      -32.7360279343      -23.4426304914  TIP3      3846            0.0000000000
     30255      4007  TIP3      OH2            10.6113140289      -16.9770777250      -41.1111806557  TIP3      3847            0.0000000000
     30256      4007  TIP3      H1             10.9990188594      -17.0025468081      -40.2165664404  TIP3      3847            0.0000000000
     30257      4007  TIP3      H2             10.1554245751      -16.1377669583      -41.0478814052  TIP3      3847            0.0000000000
     30258      4008  TIP3      OH2             3.8707515238      -22.1824115401      -41.2969981837  TIP3      3848            0.0000000000
     30259      4008  TIP3      H1              4.8226377596      -22.0463687763      -41.4886620349  TIP3      3848            0.0000000000
     30260      4008  TIP3      H2              3.4892507427      -22.4536064965      -42.1519522928  TIP3      3848            0.0000000000
     30261      4009  TIP3      OH2             2.4263789508      -16.7959130967      -36.0610222098  TIP3      3849            0.0000000000
     30262      4009  TIP3      H1              1.8838161160      -17.4338689812      -36.5729454025  TIP3      3849            0.0000000000
     30263      4009  TIP3      H2              2.7819712415      -17.3956280196      -35.3628555661  TIP3      3849            0.0000000000
     30264      4010  TIP3      OH2             3.3239851446      -18.3279573395      -34.0974008431  TIP3      3850            0.0000000000
     30265      4010  TIP3      H1              3.3095792035      -19.3006330450      -33.9307778532  TIP3      3850            0.0000000000
     30266      4010  TIP3      H2              2.9800986485      -17.9535964956      -33.2615944489  TIP3      3850            0.0000000000
     30267      4011  TIP3      OH2            20.8568788065      -17.2218341981      -30.8130201106  TIP3      3851            0.0000000000
     30268      4011  TIP3      H1             20.3765149232      -17.4878385162      -30.0011837412  TIP3      3851            0.0000000000
     30269      4011  TIP3      H2             21.7583176530      -17.1264429698      -30.4491031107  TIP3      3851            0.0000000000
     30270      4012  TIP3      OH2            20.4340092763      -18.3664192123      -28.4400776538  TIP3      3852            0.0000000000
     30271      4012  TIP3      H1             20.0419556368      -19.1518449688      -28.8881489466  TIP3      3852            0.0000000000
     30272      4012  TIP3      H2             20.9408436093      -18.8550509924      -27.7598042938  TIP3      3852            0.0000000000
     30273      4013  TIP3      OH2            19.1484013691      -22.0015505272      -23.9097671193  TIP3      3853            0.0000000000
     30274      4013  TIP3      H1             18.2602904895      -21.9109019142      -23.5154366142  TIP3      3853            0.0000000000
     30275      4013  TIP3      H2             19.5669940611      -21.1366164047      -23.7411404276  TIP3      3853            0.0000000000
     30276      4014  TIP3      OH2            19.8924333272      -23.0671433343      -37.2928776705  TIP3      3854            0.0000000000
     30277      4014  TIP3      H1             20.7536368278      -22.8503056453      -37.7139490308  TIP3      3854            0.0000000000
     30278      4014  TIP3      H2             19.9466023242      -24.0451386044      -37.2849047615  TIP3      3854            0.0000000000
     30279      4015  TIP3      OH2            20.5188544863      -25.6588880276      -37.1502822116  TIP3      3855            0.0000000000
     30280      4015  TIP3      H1             19.9636941087      -26.2116102562      -36.5467148075  TIP3      3855            0.0000000000
     30281      4015  TIP3      H2             21.3009485169      -25.5111401642      -36.5956219270  TIP3      3855            0.0000000000
     30282      4016  TIP3      OH2            20.7058309277      -23.2051321017      -31.4822259601  TIP3      3856            0.0000000000
     30283      4016  TIP3      H1             21.2877244466      -23.8168056979      -31.9794982128  TIP3      3856            0.0000000000
     30284      4016  TIP3      H2             20.9987065215      -22.3063924736      -31.7494173004  TIP3      3856            0.0000000000
     30285      4017  TIP3      OH2            19.0279701091      -20.5282158479      -29.4882536942  TIP3      3857            0.0000000000
     30286      4017  TIP3      H1             18.3123146562      -19.8936595680      -29.3303426145  TIP3      3857            0.0000000000
     30287      4017  TIP3      H2             18.7676835112      -20.8831960288      -30.3658735718  TIP3      3857            0.0000000000
     30288      4018  TIP3      OH2            19.2561822542      -25.4013124187      -40.0858003432  TIP3      3858            0.0000000000
     30289      4018  TIP3      H1             19.9265085287      -25.8483188637      -40.6533718436  TIP3      3858            0.0000000000
     30290      4018  TIP3      H2             19.7431693086      -25.3967544238      -39.2627498388  TIP3      3858            0.0000000000
     30291      4019  TIP3      OH2            18.5076872903      -29.1416650039      -41.3278817045  TIP3      3859            0.0000000000
     30292      4019  TIP3      H1             19.0418561716      -28.4658616843      -40.8810960651  TIP3      3859            0.0000000000
     30293      4019  TIP3      H2             19.0896998832      -29.3419147866      -42.0865899153  TIP3      3859            0.0000000000
     30294      4020  TIP3      OH2            19.0050779683      -27.1831536438      -35.6400942468  TIP3      3860            0.0000000000
     30295      4020  TIP3      H1             18.8451381070      -28.0253072557      -36.1297289923  TIP3      3860            0.0000000000
     30296      4020  TIP3      H2             18.3025168171      -27.2176354988      -34.9426308933  TIP3      3860            0.0000000000
     30297      4021  TIP3      OH2             3.4922687836      -25.0722432446      -31.5753754588  TIP3      3861            0.0000000000
     30298      4021  TIP3      H1              3.5428805960      -25.2479971595      -32.5406769853  TIP3      3861            0.0000000000
     30299      4021  TIP3      H2              4.3442510849      -25.4772200326      -31.2862962201  TIP3      3861            0.0000000000
     30300      4022  TIP3      OH2            19.7267243766      -25.3542303844      -26.1797248754  TIP3      3862            0.0000000000
     30301      4022  TIP3      H1             20.0548336726      -25.9648237043      -25.4835561476  TIP3      3862            0.0000000000
     30302      4022  TIP3      H2             20.3338195797      -24.5851811597      -26.1142308436  TIP3      3862            0.0000000000
     30303      4023  TIP3      OH2            20.5921301926      -27.6688891050      -25.0652101019  TIP3      3863            0.0000000000
     30304      4023  TIP3      H1             19.9298129459      -28.3081181207      -24.7589067184  TIP3      3863            0.0000000000
     30305      4023  TIP3      H2             21.4152834068      -28.1787351183      -25.1240156782  TIP3      3863            0.0000000000
     30306      4024  TIP3      OH2            18.1802148003      -32.2270398884      -41.8142109519  TIP3      3864            0.0000000000
     30307      4024  TIP3      H1             19.0856467322      -32.2266931599      -41.4481884473  TIP3      3864            0.0000000000
     30308      4024  TIP3      H2             17.9468743836      -31.2914392828      -41.7079759470  TIP3      3864            0.0000000000
     30309      4025  TIP3      OH2            18.0087422678      -29.3560888170      -36.8513513947  TIP3      3865            0.0000000000
     30310      4025  TIP3      H1             18.0865103574      -30.3375509241      -36.7815204096  TIP3      3865            0.0000000000
     30311      4025  TIP3      H2             18.5918792343      -29.2324501786      -37.6332479984  TIP3      3865            0.0000000000
     30312      4026  TIP3      OH2            19.1521078645      -28.9376405816      -32.3232131993  TIP3      3866            0.0000000000
     30313      4026  TIP3      H1             19.9442732559      -28.9629603850      -31.7393024976  TIP3      3866            0.0000000000
     30314      4026  TIP3      H2             18.7674077416      -29.8260068846      -32.2127251984  TIP3      3866            0.0000000000
     30315      4027  TIP3      OH2            18.8392536495      -28.5677681830      -29.5263026732  TIP3      3867            0.0000000000
     30316      4027  TIP3      H1             18.0247878211      -28.1363737648      -29.1848722287  TIP3      3867            0.0000000000
     30317      4027  TIP3      H2             19.1278998081      -27.8946404685      -30.1676484783  TIP3      3867            0.0000000000
     30318      4028  TIP3      OH2             3.8064277437      -29.7144714697      -25.9033209241  TIP3      3868            0.0000000000
     30319      4028  TIP3      H1              4.4858474697      -30.0550107039      -25.2674610155  TIP3      3868            0.0000000000
     30320      4028  TIP3      H2              3.0132527246      -30.1336554655      -25.5346668236  TIP3      3868            0.0000000000
     30321      4029  TIP3      OH2            20.6288283034      -34.8470880653      -23.6685332120  TIP3      3869            0.0000000000
     30322      4029  TIP3      H1             21.3002722006      -35.2275569731      -23.0489835366  TIP3      3869            0.0000000000
     30323      4029  TIP3      H2             21.1742657265      -34.5984698063      -24.4402826265  TIP3      3869            0.0000000000
     30324      4030  TIP3      OH2            18.6379744385      -31.9627956089      -37.1831541215  TIP3      3870            0.0000000000
     30325      4030  TIP3      H1             18.9894269764      -32.5932280698      -36.5289427154  TIP3      3870            0.0000000000
     30326      4030  TIP3      H2             18.0965584218      -32.5666098165      -37.7276578215  TIP3      3870            0.0000000000
     30327      4031  TIP3      OH2             4.4899744171      -31.7923463162      -31.9332641045  TIP3      3871            0.0000000000
     30328      4031  TIP3      H1              4.9799436892      -32.6076915519      -32.1726271720  TIP3      3871            0.0000000000
     30329      4031  TIP3      H2              5.1349467045      -31.0953075277      -32.1518313903  TIP3      3871            0.0000000000
     30330      4032  TIP3      OH2             2.3881030549      -28.6930417109      -31.9320618480  TIP3      3872            0.0000000000
     30331      4032  TIP3      H1              3.2252182306      -28.5148969673      -32.4132190956  TIP3      3872            0.0000000000
     30332      4032  TIP3      H2              2.2047968671      -27.8348286184      -31.4838641252  TIP3      3872            0.0000000000
     30333      4033  TIP3      OH2            20.9015813308      -32.4210038868      -25.3540622958  TIP3      3873            0.0000000000
     30334      4033  TIP3      H1             20.4493846065      -32.6986706325      -24.5318686117  TIP3      3873            0.0000000000
     30335      4033  TIP3      H2             20.2615491451      -32.6937208667      -26.0334489897  TIP3      3873            0.0000000000
     30336      4034  TIP3      OH2            20.7136772005      -32.3211575716      -40.8201886944  TIP3      3874            0.0000000000
     30337      4034  TIP3      H1             20.9856167004      -32.5305402157      -41.7357203105  TIP3      3874            0.0000000000
     30338      4034  TIP3      H2             21.3984934575      -31.6557877803      -40.5901589821  TIP3      3874            0.0000000000
     30339      4035  TIP3      OH2             3.3903215083      -31.6013281524      -37.5895333437  TIP3      3875            0.0000000000
     30340      4035  TIP3      H1              2.8313484410      -32.4167346676      -37.6400657003  TIP3      3875            0.0000000000
     30341      4035  TIP3      H2              3.3812108063      -31.2830621330      -38.5129322811  TIP3      3875            0.0000000000
     30342      4036  TIP3      OH2            17.7013737661      -17.6452546365      -35.7462372417  TIP3      3876            0.0000000000
     30343      4036  TIP3      H1             18.3500682365      -18.0823816278      -36.3436050373  TIP3      3876            0.0000000000
     30344      4036  TIP3      H2             18.1961894225      -16.9505560874      -35.2739219428  TIP3      3876            0.0000000000
     30345      4037  TIP3      OH2             2.9393379496      -34.1270486556      -29.8748952162  TIP3      3877            0.0000000000
     30346      4037  TIP3      H1              2.4868163375      -34.2622527275      -29.0246992310  TIP3      3877            0.0000000000
     30347      4037  TIP3      H2              2.7841501144      -33.1874244157      -30.0418120380  TIP3      3877            0.0000000000
     30348      4038  TIP3      OH2             5.2690730013      -21.0212739167      -25.5233242279  TIP3      3878            0.0000000000
     30349      4038  TIP3      H1              4.3793266557      -20.7006568025      -25.2878950181  TIP3      3878            0.0000000000
     30350      4038  TIP3      H2              5.7333080451      -20.8143330738      -24.6781151468  TIP3      3878            0.0000000000
     30351      4039  TIP3      OH2             7.8580927429      -19.3748071412      -29.5008399709  TIP3      3879            0.0000000000
     30352      4039  TIP3      H1              8.7976104924      -19.4184430205      -29.7069153472  TIP3      3879            0.0000000000
     30353      4039  TIP3      H2              7.7275334588      -20.3324605815      -29.3000271607  TIP3      3879            0.0000000000
     30354      4040  TIP3      OH2            12.3805743928      -18.0192545762      -26.3203341300  TIP3      3880            0.0000000000
     30355      4040  TIP3      H1             12.5489434376      -18.0221434954      -25.3722843615  TIP3      3880            0.0000000000
     30356      4040  TIP3      H2             13.2824554868      -17.7878496955      -26.6628010044  TIP3      3880            0.0000000000
     30357      4041  TIP3      OH2            14.7320151128      -17.1064371118      -27.0540379318  TIP3      3881            0.0000000000
     30358      4041  TIP3      H1             15.4140201214      -17.2358141413      -26.3882806328  TIP3      3881            0.0000000000
     30359      4041  TIP3      H2             14.4022647329      -16.2122462491      -26.8284857902  TIP3      3881            0.0000000000
     30360      4042  TIP3      OH2            19.4208197930      -34.3579705629      -27.3521946577  TIP3      3882            0.0000000000
     30361      4042  TIP3      H1             18.8068206057      -33.7145725936      -27.7515435872  TIP3      3882            0.0000000000
     30362      4042  TIP3      H2             18.9986730034      -35.2071090517      -27.5906935785  TIP3      3882            0.0000000000
     30363      4043  TIP3      OH2             5.1551532217      -17.0760927825      -28.5000579193  TIP3      3883            0.0000000000
     30364      4043  TIP3      H1              5.1758999731      -17.9727623779      -28.8996714617  TIP3      3883            0.0000000000
     30365      4043  TIP3      H2              5.8427117017      -17.1543292987      -27.8216075125  TIP3      3883            0.0000000000
     30366      4044  TIP3      OH2             8.0693237397      -16.7031685022      -29.6401570133  TIP3      3884            0.0000000000
     30367      4044  TIP3      H1              7.8788600935      -17.5925023593      -29.2674647396  TIP3      3884            0.0000000000
     30368      4044  TIP3      H2              8.8255402809      -16.9096421319      -30.2070874481  TIP3      3884            0.0000000000
     30369      4045  TIP3      OH2            13.0952677677      -16.8827932948      -31.1964694766  TIP3      3885            0.0000000000
     30370      4045  TIP3      H1             12.1820479364      -16.7154516702      -31.4640991410  TIP3      3885            0.0000000000
     30371      4045  TIP3      H2             13.2012130522      -16.2624747359      -30.4299917808  TIP3      3885            0.0000000000
     30372      4046  TIP3      OH2            15.1742204920      -18.1351641031      -29.8225077385  TIP3      3886            0.0000000000
     30373      4046  TIP3      H1             14.5365224307      -17.6618430122      -30.3888685271  TIP3      3886            0.0000000000
     30374      4046  TIP3      H2             15.7014829524      -17.3830039592      -29.4864852931  TIP3      3886            0.0000000000
     30375      4047  TIP3      OH2            17.4487740730      -16.5800276470      -29.8956839975  TIP3      3887            0.0000000000
     30376      4047  TIP3      H1             17.7006649206      -15.7136595661      -30.2481304601  TIP3      3887            0.0000000000
     30377      4047  TIP3      H2             17.6845610354      -17.1600820565      -30.6499103284  TIP3      3887            0.0000000000
     30378      4048  TIP3      OH2             5.2109999776      -17.5413299024      -31.9047603407  TIP3      3888            0.0000000000
     30379      4048  TIP3      H1              5.0486190860      -18.3016470102      -31.3198244180  TIP3      3888            0.0000000000
     30380      4048  TIP3      H2              6.0465119162      -17.8797824320      -32.3196624824  TIP3      3888            0.0000000000
     30381      4049  TIP3      OH2             7.3056907355      -18.5549944999      -33.0435935475  TIP3      3889            0.0000000000
     30382      4049  TIP3      H1              7.0758880400      -19.5057772885      -32.8950380540  TIP3      3889            0.0000000000
     30383      4049  TIP3      H2              8.2665152639      -18.6032387175      -32.8457527318  TIP3      3889            0.0000000000
     30384      4050  TIP3      OH2             9.7453070818      -18.9086437980      -32.2216486671  TIP3      3890            0.0000000000
     30385      4050  TIP3      H1              9.7300621376      -19.8945005900      -32.3259996674  TIP3      3890            0.0000000000
     30386      4050  TIP3      H2             10.2842545145      -18.8246018366      -31.4153084470  TIP3      3890            0.0000000000
     30387      4051  TIP3      OH2            12.6968917953      -32.1263477538      -33.2271427571  TIP3      3891            0.0000000000
     30388      4051  TIP3      H1             12.4317751137      -32.9493489588      -33.6849474576  TIP3      3891            0.0000000000
     30389      4051  TIP3      H2             13.4123791657      -31.8274945372      -33.7942057852  TIP3      3891            0.0000000000
     30390      4052  TIP3      OH2            18.2944102954      -34.5499947941      -33.3565079266  TIP3      3892            0.0000000000
     30391      4052  TIP3      H1             18.9202522038      -34.0885510378      -33.9604462741  TIP3      3892            0.0000000000
     30392      4052  TIP3      H2             17.4376979594      -34.2327180663      -33.7046262455  TIP3      3892            0.0000000000
     30393      4053  TIP3      OH2            19.9028009450      -33.4903452369      -35.3459484127  TIP3      3893            0.0000000000
     30394      4053  TIP3      H1             20.3955239807      -33.9891652060      -36.0096473779  TIP3      3893            0.0000000000
     30395      4053  TIP3      H2             20.5784232898      -32.8070744588      -35.1285293218  TIP3      3893            0.0000000000
     30396      4054  TIP3      OH2             4.6738777036      -34.3536689100      -35.6562955276  TIP3      3894            0.0000000000
     30397      4054  TIP3      H1              4.0020134054      -34.2655080900      -36.3723193519  TIP3      3894            0.0000000000
     30398      4054  TIP3      H2              5.1228329768      -35.1510122742      -35.9562339189  TIP3      3894            0.0000000000
     30399      4055  TIP3      OH2             4.9967871183      -33.6161351549      -39.2704610264  TIP3      3895            0.0000000000
     30400      4055  TIP3      H1              4.4674420881      -33.4161697512      -40.0552852348  TIP3      3895            0.0000000000
     30401      4055  TIP3      H2              4.3501142047      -33.4901768803      -38.5539123753  TIP3      3895            0.0000000000
     30402      4056  TIP3      OH2             9.8191642066      -34.3330936899      -36.0150874023  TIP3      3896            0.0000000000
     30403      4056  TIP3      H1             10.7149944375      -33.9663304784      -35.9373604223  TIP3      3896            0.0000000000
     30404      4056  TIP3      H2              9.2709717702      -33.6097736836      -35.6827834909  TIP3      3896            0.0000000000
     30405      4057  TIP3      OH2            15.6740378014      -34.2304435333      -34.3154828236  TIP3      3897            0.0000000000
     30406      4057  TIP3      H1             15.2391090394      -33.9606846220      -35.1390342106  TIP3      3897            0.0000000000
     30407      4057  TIP3      H2             15.4056315846      -35.1600020777      -34.2184102319  TIP3      3897            0.0000000000
     30408      4058  TIP3      OH2            16.9301696567      -33.8846899630      -38.4696015909  TIP3      3898            0.0000000000
     30409      4058  TIP3      H1             16.2638252931      -33.1754972443      -38.4138966665  TIP3      3898            0.0000000000
     30410      4058  TIP3      H2             16.6146849147      -34.3401766040      -39.2852887653  TIP3      3898            0.0000000000
     30411      4059  TIP3      OH2             4.2993623553      -18.4306291705      -38.7698230697  TIP3      3899            0.0000000000
     30412      4059  TIP3      H1              3.5383226516      -18.6483736714      -39.3210831453  TIP3      3899            0.0000000000
     30413      4059  TIP3      H2              4.3730372234      -17.4894159828      -38.9875122449  TIP3      3899            0.0000000000
     30414      4060  TIP3      OH2             5.7446157627      -32.4702916388      -41.5498866896  TIP3      3900            0.0000000000
     30415      4060  TIP3      H1              6.6259812994      -32.8507660781      -41.6558696221  TIP3      3900            0.0000000000
     30416      4060  TIP3      H2              5.7894179242      -32.1765376384      -40.6165215349  TIP3      3900            0.0000000000
     30417      4061  TIP3      OH2            11.1990461337      -32.3029736595      -39.0534187154  TIP3      3901            0.0000000000
     30418      4061  TIP3      H1             11.5850951841      -32.7595434780      -38.2907691345  TIP3      3901            0.0000000000
     30419      4061  TIP3      H2             11.4137473431      -31.3805579435      -38.7884465219  TIP3      3901            0.0000000000
     30420      4062  TIP3      OH2            13.3176556020      -16.5429485489      -40.4563747983  TIP3      3902            0.0000000000
     30421      4062  TIP3      H1             14.2320928418      -16.4386731345      -40.7987750768  TIP3      3902            0.0000000000
     30422      4062  TIP3      H2             13.1428891148      -17.4441917485      -40.8028069741  TIP3      3902            0.0000000000
     30423      4063  TIP3      OH2            19.6179592294      -17.9211508226      -37.6379450226  TIP3      3903            0.0000000000
     30424      4063  TIP3      H1             19.3041398865      -18.6578591439      -38.2299232650  TIP3      3903            0.0000000000
     30425      4063  TIP3      H2             19.2897046424      -17.1521610741      -38.1684986344  TIP3      3903            0.0000000000
     30426      4064  TIP3      OH2             4.9133739239      -33.3651480607      -25.2897897857  TIP3      3904            0.0000000000
     30427      4064  TIP3      H1              4.1874008258      -33.9824959444      -25.4839762418  TIP3      3904            0.0000000000
     30428      4064  TIP3      H2              5.4299620045      -33.8239230618      -24.5985791107  TIP3      3904            0.0000000000
     30429      4065  TIP3      OH2             7.2765196977      -34.4686171474      -24.2878463190  TIP3      3905            0.0000000000
     30430      4065  TIP3      H1              8.1801222146      -34.1419888943      -24.1577791642  TIP3      3905            0.0000000000
     30431      4065  TIP3      H2              7.4200555074      -35.4239586405      -24.4250640765  TIP3      3905            0.0000000000
     30432      4066  TIP3      OH2             5.5993162537      -17.4317946117      -41.4297234773  TIP3      3906            0.0000000000
     30433      4066  TIP3      H1              5.0492197901      -16.7787399296      -40.9579588544  TIP3      3906            0.0000000000
     30434      4066  TIP3      H2              6.1547427812      -17.7875627768      -40.6961721182  TIP3      3906            0.0000000000
     30435      4067  TIP3      OH2            16.4979698905      -34.2198475084      -24.3574197049  TIP3      3907            0.0000000000
     30436      4067  TIP3      H1             17.1319286526      -34.7778964029      -23.8628051930  TIP3      3907            0.0000000000
     30437      4067  TIP3      H2             16.4795335954      -34.5540573330      -25.2807908460  TIP3      3907            0.0000000000
     30438      4068  TIP3      OH2            18.9057735903      -19.1010079739      -25.7092815823  TIP3      3908            0.0000000000
     30439      4068  TIP3      H1             18.4091848229      -19.0138315665      -26.5613868062  TIP3      3908            0.0000000000
     30440      4068  TIP3      H2             18.8400428226      -18.1642416605      -25.4239151341  TIP3      3908            0.0000000000
     30441      4069  TIP3      OH2            33.4859083095      -25.4811811218      -35.4736724217  TIP3      3909            0.0000000000
     30442      4069  TIP3      H1             33.8391369031      -24.6414949047      -35.1418730345  TIP3      3909            0.0000000000
     30443      4069  TIP3      H2             33.0602828919      -25.2041105926      -36.3075962815  TIP3      3909            0.0000000000
     30444      4070  TIP3      OH2            31.7869973869      -25.8474611048      -31.9856393715  TIP3      3910            0.0000000000
     30445      4070  TIP3      H1             32.2185075525      -26.4273643394      -31.3327107392  TIP3      3910            0.0000000000
     30446      4070  TIP3      H2             32.1428763003      -26.2108890657      -32.8175103965  TIP3      3910            0.0000000000
     30447      4071  TIP3      OH2            24.4060776609      -26.0704270285      -30.3680362694  TIP3      3911            0.0000000000
     30448      4071  TIP3      H1             24.8651488500      -26.8919613535      -30.1205880270  TIP3      3911            0.0000000000
     30449      4071  TIP3      H2             25.1645802192      -25.5073746171      -30.6173443096  TIP3      3911            0.0000000000
     30450      4072  TIP3      OH2            24.4769201217      -22.0890874203      -31.3673977978  TIP3      3912            0.0000000000
     30451      4072  TIP3      H1             24.0854623973      -22.8118763174      -31.8823529988  TIP3      3912            0.0000000000
     30452      4072  TIP3      H2             25.2400461302      -21.8749881618      -31.9427627822  TIP3      3912            0.0000000000
     30453      4073  TIP3      OH2            22.0410122147      -28.6749044608      -36.6354362246  TIP3      3913            0.0000000000
     30454      4073  TIP3      H1             22.3366561826      -27.7775619261      -36.8463705577  TIP3      3913            0.0000000000
     30455      4073  TIP3      H2             21.3426440422      -28.8148749399      -37.3099636888  TIP3      3913            0.0000000000
     30456      4074  TIP3      OH2            22.7493957382      -25.8391481177      -34.6604158888  TIP3      3914            0.0000000000
     30457      4074  TIP3      H1             23.2487445899      -26.6458245479      -34.4286703591  TIP3      3914            0.0000000000
     30458      4074  TIP3      H2             23.4604003000      -25.1604919225      -34.5965854897  TIP3      3914            0.0000000000
     30459      4075  TIP3      OH2            32.6266836268      -17.6704889514      -33.5026947746  TIP3      3915            0.0000000000
     30460      4075  TIP3      H1             32.7383231163      -18.6182752525      -33.6449249540  TIP3      3915            0.0000000000
     30461      4075  TIP3      H2             32.3700973181      -17.6366866936      -32.5727958366  TIP3      3915            0.0000000000
     30462      4076  TIP3      OH2            30.3217735216      -23.3726588797      -31.4697786225  TIP3      3916            0.0000000000
     30463      4076  TIP3      H1             30.6799717349      -23.8265230385      -32.2521681198  TIP3      3916            0.0000000000
     30464      4076  TIP3      H2             31.1256221423      -23.3450988381      -30.9210356746  TIP3      3916            0.0000000000
     30465      4077  TIP3      OH2            33.1116524902      -30.1594529019      -31.7963010033  TIP3      3917            0.0000000000
     30466      4077  TIP3      H1             32.9580941143      -30.0043164674      -30.8470643000  TIP3      3917            0.0000000000
     30467      4077  TIP3      H2             33.4855789231      -29.2910085359      -32.0117564396  TIP3      3917            0.0000000000
     30468      4078  TIP3      OH2            27.7847502040      -31.1463076123      -34.7764999388  TIP3      3918            0.0000000000
     30469      4078  TIP3      H1             27.5799830795      -30.2673337977      -35.1700435776  TIP3      3918            0.0000000000
     30470      4078  TIP3      H2             27.0520143386      -31.6865793807      -35.1423619165  TIP3      3918            0.0000000000
     30471      4079  TIP3      OH2            33.8442289739      -30.1605299823      -35.5083184669  TIP3      3919            0.0000000000
     30472      4079  TIP3      H1             34.4688797000      -30.8442412241      -35.1989641343  TIP3      3919            0.0000000000
     30473      4079  TIP3      H2             34.4252286247      -29.3682709572      -35.6088504287  TIP3      3919            0.0000000000
     30474      4080  TIP3      OH2            23.4245211827      -28.2952227411      -33.6343044924  TIP3      3920            0.0000000000
     30475      4080  TIP3      H1             23.8780372211      -28.8441058197      -32.9670145534  TIP3      3920            0.0000000000
     30476      4080  TIP3      H2             23.8611565101      -28.6712598788      -34.4409674130  TIP3      3920            0.0000000000
     30477      4081  TIP3      OH2            28.6325792794      -26.8648733241      -34.0816840204  TIP3      3921            0.0000000000
     30478      4081  TIP3      H1             29.3676600962      -27.5042506647      -34.0571539116  TIP3      3921            0.0000000000
     30479      4081  TIP3      H2             28.0700788334      -27.2453502211      -34.7865686948  TIP3      3921            0.0000000000
     30480      4082  TIP3      OH2            25.6796446215      -31.9702443578      -30.2652995661  TIP3      3922            0.0000000000
     30481      4082  TIP3      H1             25.5636521442      -31.3923039038      -31.0466200150  TIP3      3922            0.0000000000
     30482      4082  TIP3      H2             24.9701288196      -31.6555709324      -29.6739514675  TIP3      3922            0.0000000000
     30483      4083  TIP3      OH2            32.9602896799      -22.4299759030      -36.8936057834  TIP3      3923            0.0000000000
     30484      4083  TIP3      H1             32.6637402650      -22.5775788426      -37.8078499957  TIP3      3923            0.0000000000
     30485      4083  TIP3      H2             32.3534832059      -21.7248050135      -36.6006432158  TIP3      3923            0.0000000000
     30486      4084  TIP3      OH2            28.1289595177      -24.5771161816      -30.0116712664  TIP3      3924            0.0000000000
     30487      4084  TIP3      H1             27.5909247205      -23.8851159484      -29.5748324768  TIP3      3924            0.0000000000
     30488      4084  TIP3      H2             28.7349949728      -24.0180578071      -30.5495454149  TIP3      3924            0.0000000000
     30489      4085  TIP3      OH2            25.5662930095      -30.1758127968      -32.5436501509  TIP3      3925            0.0000000000
     30490      4085  TIP3      H1             26.1135999201      -29.5713780483      -31.9825433404  TIP3      3925            0.0000000000
     30491      4085  TIP3      H2             26.1178235565      -30.1927757072      -33.3400525797  TIP3      3925            0.0000000000
     30492      4086  TIP3      OH2            27.0934907932      -22.1786045179      -28.9519350506  TIP3      3926            0.0000000000
     30493      4086  TIP3      H1             26.9854973822      -21.4833137457      -29.6247612767  TIP3      3926            0.0000000000
     30494      4086  TIP3      H2             26.1620302546      -22.2868317890      -28.6343589232  TIP3      3926            0.0000000000
     30495      4087  TIP3      OH2            22.4030175690      -22.6548518500      -38.2932979697  TIP3      3927            0.0000000000
     30496      4087  TIP3      H1             22.5086576868      -22.5460079937      -39.2596472213  TIP3      3927            0.0000000000
     30497      4087  TIP3      H2             22.8682830773      -21.8920162685      -37.9266521785  TIP3      3927            0.0000000000
     30498      4088  TIP3      OH2            29.5192936342      -34.5143322688      -33.7908762848  TIP3      3928            0.0000000000
     30499      4088  TIP3      H1             30.3533984393      -35.0426583337      -33.6281801940  TIP3      3928            0.0000000000
     30500      4088  TIP3      H2             28.9545712155      -34.7493360194      -33.0290965336  TIP3      3928            0.0000000000
     30501      4089  TIP3      OH2            34.2127699392      -19.3543141156      -35.5680990104  TIP3      3929            0.0000000000
     30502      4089  TIP3      H1             34.4785061212      -20.1718566432      -35.1161596750  TIP3      3929            0.0000000000
     30503      4089  TIP3      H2             34.8017030156      -18.7128438816      -35.1117823613  TIP3      3929            0.0000000000
     30504      4090  TIP3      OH2            32.3610615106      -25.4353800565      -38.1327864426  TIP3      3930            0.0000000000
     30505      4090  TIP3      H1             31.6560290038      -24.7476849930      -38.2070227903  TIP3      3930            0.0000000000
     30506      4090  TIP3      H2             33.0208923114      -25.1455757486      -38.7952921642  TIP3      3930            0.0000000000
     30507      4091  TIP3      OH2            31.9486391385      -27.1464554926      -41.0601618103  TIP3      3931            0.0000000000
     30508      4091  TIP3      H1             32.4152731722      -27.1215423167      -40.2079545131  TIP3      3931            0.0000000000
     30509      4091  TIP3      H2             32.4651854273      -27.7859206739      -41.5642817670  TIP3      3931            0.0000000000
     30510      4092  TIP3      OH2            26.9747647986      -25.5465974203      -35.7627634301  TIP3      3932            0.0000000000
     30511      4092  TIP3      H1             27.0941500473      -25.5803697296      -36.7288340604  TIP3      3932            0.0000000000
     30512      4092  TIP3      H2             27.8901139538      -25.5410827442      -35.4223190142  TIP3      3932            0.0000000000
     30513      4093  TIP3      OH2            29.2011779531      -21.1224891781      -32.4000764856  TIP3      3933            0.0000000000
     30514      4093  TIP3      H1             28.4004043559      -21.3967614564      -32.8848866642  TIP3      3933            0.0000000000
     30515      4093  TIP3      H2             29.5247489817      -21.9835817698      -32.0631969734  TIP3      3933            0.0000000000
     30516      4094  TIP3      OH2            27.2557823621      -26.3816262915      -31.7656855883  TIP3      3934            0.0000000000
     30517      4094  TIP3      H1             27.7316036975      -26.3470143526      -32.6308288994  TIP3      3934            0.0000000000
     30518      4094  TIP3      H2             27.7944426186      -25.7692201446      -31.2151365956  TIP3      3934            0.0000000000
     30519      4095  TIP3      OH2            33.9041810413      -20.3567024594      -31.3314555044  TIP3      3935            0.0000000000
     30520      4095  TIP3      H1             34.2303522679      -19.6896322594      -30.6793149810  TIP3      3935            0.0000000000
     30521      4095  TIP3      H2             33.4446190368      -21.0033144798      -30.7674751141  TIP3      3935            0.0000000000
     30522      4096  TIP3      OH2            28.5594894390      -20.8349306210      -27.0589706356  TIP3      3936            0.0000000000
     30523      4096  TIP3      H1             27.9139431421      -20.9362702390      -26.3336658787  TIP3      3936            0.0000000000
     30524      4096  TIP3      H2             28.0578296911      -21.2474888299      -27.7906803207  TIP3      3936            0.0000000000
     30525      4097  TIP3      OH2            34.6352415003      -25.6238773069      -39.6583204348  TIP3      3937            0.0000000000
     30526      4097  TIP3      H1             35.0747875341      -25.9163464939      -38.8157394692  TIP3      3937            0.0000000000
     30527      4097  TIP3      H2             34.8986692654      -24.6874156218      -39.6635880087  TIP3      3937            0.0000000000
     30528      4098  TIP3      OH2            25.5371465298      -25.8994981862      -27.8008328469  TIP3      3938            0.0000000000
     30529      4098  TIP3      H1             25.8749008639      -25.0101793547      -27.6025320387  TIP3      3938            0.0000000000
     30530      4098  TIP3      H2             24.6473863712      -25.8436581124      -27.4515688630  TIP3      3938            0.0000000000
     30531      4099  TIP3      OH2            31.3942194513      -19.8996436167      -36.0946548499  TIP3      3939            0.0000000000
     30532      4099  TIP3      H1             32.1366747933      -19.2786862905      -36.1294266582  TIP3      3939            0.0000000000
     30533      4099  TIP3      H2             30.6736838919      -19.4178818254      -36.5325199730  TIP3      3939            0.0000000000
     30534      4100  TIP3      OH2            26.2498616617      -20.1068205310      -25.8037730681  TIP3      3940            0.0000000000
     30535      4100  TIP3      H1             26.5221732594      -19.3283858037      -26.3280728590  TIP3      3940            0.0000000000
     30536      4100  TIP3      H2             25.3504553310      -20.2549792976      -26.1020669867  TIP3      3940            0.0000000000
     30537      4101  TIP3      OH2            26.4207208056      -26.2064150796      -38.3800670646  TIP3      3941            0.0000000000
     30538      4101  TIP3      H1             25.8939485899      -25.3829616592      -38.5494518374  TIP3      3941            0.0000000000
     30539      4101  TIP3      H2             25.7421071735      -26.8293775205      -38.0941167609  TIP3      3941            0.0000000000
     30540      4102  TIP3      OH2            22.2404902918      -23.3898153441      -28.8606786581  TIP3      3942            0.0000000000
     30541      4102  TIP3      H1             21.6720075476      -23.3335749703      -29.6477237065  TIP3      3942            0.0000000000
     30542      4102  TIP3      H2             22.4702857378      -24.3328571312      -28.8494068465  TIP3      3942            0.0000000000
     30543      4103  TIP3      OH2            21.9932237450      -20.8055424288      -31.7735674804  TIP3      3943            0.0000000000
     30544      4103  TIP3      H1             22.5604915944      -21.5064428148      -31.4042170331  TIP3      3943            0.0000000000
     30545      4103  TIP3      H2             22.5493331447      -20.0457353019      -31.5379409767  TIP3      3943            0.0000000000
     30546      4104  TIP3      OH2            31.1723553762      -20.6393781651      -27.2731766377  TIP3      3944            0.0000000000
     30547      4104  TIP3      H1             31.2900287235      -19.6835822044      -27.0609931921  TIP3      3944            0.0000000000
     30548      4104  TIP3      H2             30.1906418304      -20.7024688965      -27.1873552003  TIP3      3944            0.0000000000
     30549      4105  TIP3      OH2            31.3366442824      -16.7856335910      -37.8584010830  TIP3      3945            0.0000000000
     30550      4105  TIP3      H1             31.3880316296      -16.6629268787      -38.8229443711  TIP3      3945            0.0000000000
     30551      4105  TIP3      H2             31.4292389570      -15.8507477555      -37.5693423137  TIP3      3945            0.0000000000
     30552      4106  TIP3      OH2            25.2916019947      -17.9793952775      -35.6922231755  TIP3      3946            0.0000000000
     30553      4106  TIP3      H1             25.6658694999      -18.3413542481      -34.8572362639  TIP3      3946            0.0000000000
     30554      4106  TIP3      H2             24.4943907115      -18.5369744772      -35.8297787246  TIP3      3946            0.0000000000
     30555      4107  TIP3      OH2            34.7997171551      -17.6533134458      -40.4951673877  TIP3      3947            0.0000000000
     30556      4107  TIP3      H1             34.5620603865      -18.3636534254      -41.1079823598  TIP3      3947            0.0000000000
     30557      4107  TIP3      H2             34.2384516668      -17.8339251372      -39.7116637369  TIP3      3947            0.0000000000
     30558      4108  TIP3      OH2            33.4903722601      -18.3949128763      -38.1514855248  TIP3      3948            0.0000000000
     30559      4108  TIP3      H1             32.6194560266      -17.9697723956      -37.9540863431  TIP3      3948            0.0000000000
     30560      4108  TIP3      H2             33.7195992220      -18.8634956740      -37.3229553133  TIP3      3948            0.0000000000
     30561      4109  TIP3      OH2            24.6605995705      -22.4733001060      -28.0059612610  TIP3      3949            0.0000000000
     30562      4109  TIP3      H1             24.6636136277      -22.7609062114      -27.0606548698  TIP3      3949            0.0000000000
     30563      4109  TIP3      H2             23.7159448213      -22.5099896121      -28.2614098440  TIP3      3949            0.0000000000
     30564      4110  TIP3      OH2            27.2332323959      -33.4123982754      -32.1208834518  TIP3      3950            0.0000000000
     30565      4110  TIP3      H1             26.5016940835      -33.8102137843      -32.6022089465  TIP3      3950            0.0000000000
     30566      4110  TIP3      H2             26.7995669566      -33.1160822262      -31.3071729335  TIP3      3950            0.0000000000
     30567      4111  TIP3      OH2            32.2349260300      -34.3338594199      -28.3901614501  TIP3      3951            0.0000000000
     30568      4111  TIP3      H1             32.3941196110      -34.9373009266      -27.6476773286  TIP3      3951            0.0000000000
     30569      4111  TIP3      H2             31.4622333463      -34.7501351503      -28.8289066215  TIP3      3951            0.0000000000
     30570      4112  TIP3      OH2            31.5480398496      -32.0916589208      -41.6381827067  TIP3      3952            0.0000000000
     30571      4112  TIP3      H1             31.0816032505      -32.0061233381      -40.7887673955  TIP3      3952            0.0000000000
     30572      4112  TIP3      H2             30.8775217732      -32.5471982744      -42.1593873480  TIP3      3952            0.0000000000
     30573      4113  TIP3      OH2            27.0494493261      -28.8621319429      -30.7883583097  TIP3      3953            0.0000000000
     30574      4113  TIP3      H1             26.2376659728      -28.7966723039      -30.2389578977  TIP3      3953            0.0000000000
     30575      4113  TIP3      H2             27.1139546145      -27.9356921282      -31.1252118077  TIP3      3953            0.0000000000
     30576      4114  TIP3      OH2            27.2583873059      -28.6021123054      -35.7975993587  TIP3      3954            0.0000000000
     30577      4114  TIP3      H1             26.3157653123      -28.3555967379      -35.8092210378  TIP3      3954            0.0000000000
     30578      4114  TIP3      H2             27.4491998008      -28.5883647947      -36.7679643382  TIP3      3954            0.0000000000
     30579      4115  TIP3      OH2            32.3953812323      -28.0223720734      -37.5465470606  TIP3      3955            0.0000000000
     30580      4115  TIP3      H1             32.2897126807      -27.0490265964      -37.6616481260  TIP3      3955            0.0000000000
     30581      4115  TIP3      H2             33.1994120072      -28.1872558357      -38.0885615989  TIP3      3955            0.0000000000
     30582      4116  TIP3      OH2            32.1023300858      -28.1046901215      -25.8485772153  TIP3      3956            0.0000000000
     30583      4116  TIP3      H1             31.8700421814      -28.9836496015      -25.5106826071  TIP3      3956            0.0000000000
     30584      4116  TIP3      H2             32.7403476801      -27.7997867995      -25.1872225072  TIP3      3956            0.0000000000
     30585      4117  TIP3      OH2            32.9862302764      -27.6771568385      -33.9714631746  TIP3      3957            0.0000000000
     30586      4117  TIP3      H1             33.2439901507      -26.9026029659      -34.5194225145  TIP3      3957            0.0000000000
     30587      4117  TIP3      H2             33.4624028339      -28.3653074582      -34.4675583941  TIP3      3957            0.0000000000
     30588      4118  TIP3      OH2            24.8222070354      -28.7978657714      -29.1407775038  TIP3      3958            0.0000000000
     30589      4118  TIP3      H1             25.0723982598      -28.3973605094      -28.2928837713  TIP3      3958            0.0000000000
     30590      4118  TIP3      H2             24.3469777893      -29.6046093748      -28.8861884324  TIP3      3958            0.0000000000
     30591      4119  TIP3      OH2            28.4532988474      -31.0024266781      -41.5673029539  TIP3      3959            0.0000000000
     30592      4119  TIP3      H1             27.9729362978      -31.6292057539      -40.9920199497  TIP3      3959            0.0000000000
     30593      4119  TIP3      H2             28.2269620383      -30.1380833607      -41.1684026831  TIP3      3959            0.0000000000
     30594      4120  TIP3      OH2            21.8883847590      -31.5711120751      -34.9831327468  TIP3      3960            0.0000000000
     30595      4120  TIP3      H1             22.5458291715      -30.9750613427      -34.6120975608  TIP3      3960            0.0000000000
     30596      4120  TIP3      H2             22.0313922423      -31.4660775400      -35.9413603703  TIP3      3960            0.0000000000
     30597      4121  TIP3      OH2            22.4698621643      -30.5954977542      -39.9369601269  TIP3      3961            0.0000000000
     30598      4121  TIP3      H1             23.3162244190      -30.9006564417      -40.3428047734  TIP3      3961            0.0000000000
     30599      4121  TIP3      H2             22.3297308249      -29.7278396904      -40.3708876660  TIP3      3961            0.0000000000
     30600      4122  TIP3      OH2            32.7409919672      -28.0119199266      -30.0545351458  TIP3      3962            0.0000000000
     30601      4122  TIP3      H1             33.6848702903      -27.8862251082      -30.2753885805  TIP3      3962            0.0000000000
     30602      4122  TIP3      H2             32.6383693610      -27.3061838848      -29.3726969605  TIP3      3962            0.0000000000
     30603      4123  TIP3      OH2            30.3173892634      -30.6121164106      -35.3027137896  TIP3      3963            0.0000000000
     30604      4123  TIP3      H1             29.3847575682      -30.9119064773      -35.2460455679  TIP3      3963            0.0000000000
     30605      4123  TIP3      H2             30.2487170293      -29.7392736108      -34.8660519890  TIP3      3963            0.0000000000
     30606      4124  TIP3      OH2            24.5124006665      -29.4562640594      -35.7113394979  TIP3      3964            0.0000000000
     30607      4124  TIP3      H1             23.7476567225      -29.4104820219      -36.3241161506  TIP3      3964            0.0000000000
     30608      4124  TIP3      H2             25.0129108798      -30.2302741634      -36.0488443708  TIP3      3964            0.0000000000
     30609      4125  TIP3      OH2            27.7528948702      -29.2526398559      -38.3835682430  TIP3      3965            0.0000000000
     30610      4125  TIP3      H1             28.7352166817      -29.3638480060      -38.3237323708  TIP3      3965            0.0000000000
     30611      4125  TIP3      H2             27.6214061020      -28.8237821512      -39.2594752692  TIP3      3965            0.0000000000
     30612      4126  TIP3      OH2            34.5284787035      -32.8112654374      -31.3839232608  TIP3      3966            0.0000000000
     30613      4126  TIP3      H1             33.7828753876      -32.2410776945      -31.1132718164  TIP3      3966            0.0000000000
     30614      4126  TIP3      H2             34.5395119872      -32.6536466778      -32.3448675051  TIP3      3966            0.0000000000
     30615      4127  TIP3      OH2            27.3130160780      -28.5666624711      -40.9404751148  TIP3      3967            0.0000000000
     30616      4127  TIP3      H1             26.4435723735      -28.4871038324      -41.3959757856  TIP3      3967            0.0000000000
     30617      4127  TIP3      H2             27.8912524900      -28.0732260487      -41.5557498844  TIP3      3967            0.0000000000
     30618      4128  TIP3      OH2            24.8018070696      -23.1692599800      -25.4145558235  TIP3      3968            0.0000000000
     30619      4128  TIP3      H1             25.5214998297      -23.7887113128      -25.1458500514  TIP3      3968            0.0000000000
     30620      4128  TIP3      H2             24.0436449617      -23.6175468537      -24.9912870299  TIP3      3968            0.0000000000
     30621      4129  TIP3      OH2            30.6157058281      -28.5924860118      -33.2548506786  TIP3      3969            0.0000000000
     30622      4129  TIP3      H1             31.5524690089      -28.4168927108      -33.5140796289  TIP3      3969            0.0000000000
     30623      4129  TIP3      H2             30.5570777076      -28.0707486891      -32.4361239916  TIP3      3969            0.0000000000
     30624      4130  TIP3      OH2            25.6216728284      -31.9250011918      -36.2676953678  TIP3      3970            0.0000000000
     30625      4130  TIP3      H1             24.9902907400      -32.5502246211      -35.8611575872  TIP3      3970            0.0000000000
     30626      4130  TIP3      H2             26.0683884185      -32.4832971601      -36.9255226519  TIP3      3970            0.0000000000
     30627      4131  TIP3      OH2            29.2410018698      -30.3595297601      -30.4161852381  TIP3      3971            0.0000000000
     30628      4131  TIP3      H1             28.4707503135      -29.7626507584      -30.5796301288  TIP3      3971            0.0000000000
     30629      4131  TIP3      H2             29.8922368442      -29.7702916851      -29.9699705546  TIP3      3971            0.0000000000
     30630      4132  TIP3      OH2            30.3223354415      -23.8489069482      -38.3658457853  TIP3      3972            0.0000000000
     30631      4132  TIP3      H1             29.7127780540      -24.4345326941      -38.8726640083  TIP3      3972            0.0000000000
     30632      4132  TIP3      H2             29.7943549163      -23.7036138485      -37.5479793279  TIP3      3972            0.0000000000
     30633      4133  TIP3      OH2            33.8645501217      -30.7358438419      -40.5024824155  TIP3      3973            0.0000000000
     30634      4133  TIP3      H1             33.3725490535      -31.3416115276      -41.1001275687  TIP3      3973            0.0000000000
     30635      4133  TIP3      H2             34.0511462029      -29.9924932826      -41.1125497500  TIP3      3973            0.0000000000
     30636      4134  TIP3      OH2            31.0517639691      -23.7491944690      -27.3583241258  TIP3      3974            0.0000000000
     30637      4134  TIP3      H1             31.7759283980      -24.3024047443      -27.7464250593  TIP3      3974            0.0000000000
     30638      4134  TIP3      H2             31.3690944924      -22.8437170868      -27.5181791345  TIP3      3974            0.0000000000
     30639      4135  TIP3      OH2            34.5393311674      -28.3947379474      -39.0682994052  TIP3      3975            0.0000000000
     30640      4135  TIP3      H1             35.2692466066      -28.9584753165      -38.7636329487  TIP3      3975            0.0000000000
     30641      4135  TIP3      H2             34.9641965504      -27.9338337711      -39.8076472804  TIP3      3975            0.0000000000
     30642      4136  TIP3      OH2            24.9044250801      -24.5387345302      -33.3642497434  TIP3      3976            0.0000000000
     30643      4136  TIP3      H1             25.5484445055      -24.1398837921      -33.9968935718  TIP3      3976            0.0000000000
     30644      4136  TIP3      H2             25.5180169345      -25.0021928544      -32.7778199002  TIP3      3976            0.0000000000
     30645      4137  TIP3      OH2            32.3703071921      -22.4291818535      -39.7242122101  TIP3      3977            0.0000000000
     30646      4137  TIP3      H1             32.0119351829      -21.5283400591      -39.6466848254  TIP3      3977            0.0000000000
     30647      4137  TIP3      H2             31.5921217146      -22.9390033833      -39.4237743286  TIP3      3977            0.0000000000
     30648      4138  TIP3      OH2            22.7248143554      -26.1909132778      -28.0223415923  TIP3      3978            0.0000000000
     30649      4138  TIP3      H1             23.0507769203      -26.5767267022      -27.1945633253  TIP3      3978            0.0000000000
     30650      4138  TIP3      H2             23.5203087702      -26.1579429804      -28.5956095368  TIP3      3978            0.0000000000
     30651      4139  TIP3      OH2            29.2592497323      -25.6753283039      -26.1674081334  TIP3      3979            0.0000000000
     30652      4139  TIP3      H1             29.4448905108      -25.1578345321      -26.9719129569  TIP3      3979            0.0000000000
     30653      4139  TIP3      H2             30.0270085018      -25.3894848717      -25.6551746609  TIP3      3979            0.0000000000
     30654      4140  TIP3      OH2            34.4645532211      -20.9759461348      -27.7060720876  TIP3      3980            0.0000000000
     30655      4140  TIP3      H1             33.6122405123      -20.9598212041      -28.1625028145  TIP3      3980            0.0000000000
     30656      4140  TIP3      H2             34.1790186728      -20.8666081130      -26.7787609722  TIP3      3980            0.0000000000
     30657      4141  TIP3      OH2            28.0057387963      -20.7320678988      -36.4649285454  TIP3      3981            0.0000000000
     30658      4141  TIP3      H1             27.6202040430      -19.8466821957      -36.5255010605  TIP3      3981            0.0000000000
     30659      4141  TIP3      H2             27.5020306546      -21.1326981434      -35.7177843315  TIP3      3981            0.0000000000
     30660      4142  TIP3      OH2            23.6920212860      -25.3791887864      -41.3196555296  TIP3      3982            0.0000000000
     30661      4142  TIP3      H1             24.1606772913      -25.6092028161      -40.5075217538  TIP3      3982            0.0000000000
     30662      4142  TIP3      H2             22.8994865995      -25.9609776936      -41.2596118203  TIP3      3982            0.0000000000
     30663      4143  TIP3      OH2            29.0758924178      -23.2839427297      -35.9482508711  TIP3      3983            0.0000000000
     30664      4143  TIP3      H1             28.9393951443      -22.3870435745      -36.3119390479  TIP3      3983            0.0000000000
     30665      4143  TIP3      H2             28.6091611187      -23.1587156132      -35.1049781882  TIP3      3983            0.0000000000
     30666      4144  TIP3      OH2            29.5384939048      -19.3276068163      -29.5448596136  TIP3      3984            0.0000000000
     30667      4144  TIP3      H1             30.0690736418      -18.5353875091      -29.7458217080  TIP3      3984            0.0000000000
     30668      4144  TIP3      H2             30.1105055756      -19.7361803850      -28.8798760335  TIP3      3984            0.0000000000
     30669      4145  TIP3      OH2            27.6838553563      -17.7552264054      -36.8988369755  TIP3      3985            0.0000000000
     30670      4145  TIP3      H1             26.8009100180      -17.7686991961      -36.4855423908  TIP3      3985            0.0000000000
     30671      4145  TIP3      H2             28.1017519797      -17.0103863202      -36.4224099193  TIP3      3985            0.0000000000
     30672      4146  TIP3      OH2            32.6924707922      -22.7813158382      -30.1519251529  TIP3      3986            0.0000000000
     30673      4146  TIP3      H1             32.7395177136      -22.9495973197      -29.1999836261  TIP3      3986            0.0000000000
     30674      4146  TIP3      H2             33.2741157546      -23.4857408553      -30.4937700004  TIP3      3986            0.0000000000
     30675      4147  TIP3      OH2            23.3092414099      -31.4097970034      -28.8889420588  TIP3      3987            0.0000000000
     30676      4147  TIP3      H1             22.5805565388      -30.7508135318      -28.9340585291  TIP3      3987            0.0000000000
     30677      4147  TIP3      H2             23.0257009251      -32.0170047446      -29.6071594233  TIP3      3987            0.0000000000
     30678      4148  TIP3      OH2            23.8692695973      -19.6018046493      -30.0961423136  TIP3      3988            0.0000000000
     30679      4148  TIP3      H1             24.3010293095      -20.4763336987      -30.1458610597  TIP3      3988            0.0000000000
     30680      4148  TIP3      H2             24.2800306248      -19.2754757283      -29.2796009226  TIP3      3988            0.0000000000
     30681      4149  TIP3      OH2            28.2092128792      -21.2633709792      -39.7788336903  TIP3      3989            0.0000000000
     30682      4149  TIP3      H1             28.7500326042      -21.6869969770      -39.0944751846  TIP3      3989            0.0000000000
     30683      4149  TIP3      H2             28.3181143114      -20.3208406068      -39.5168420608  TIP3      3989            0.0000000000
     30684      4150  TIP3      OH2            24.9207948893      -24.0072241715      -39.0224944093  TIP3      3990            0.0000000000
     30685      4150  TIP3      H1             24.1544019464      -23.7616760944      -38.4788933857  TIP3      3990            0.0000000000
     30686      4150  TIP3      H2             25.0319255113      -23.2042454046      -39.5863788763  TIP3      3990            0.0000000000
     30687      4151  TIP3      OH2            32.9762908577      -31.5850096644      -29.0461521087  TIP3      3991            0.0000000000
     30688      4151  TIP3      H1             33.5909460389      -31.9297358859      -28.3671656753  TIP3      3991            0.0000000000
     30689      4151  TIP3      H2             32.4908332016      -32.4254118203      -29.1604954039  TIP3      3991            0.0000000000
     30690      4152  TIP3      OH2            33.2337984186      -31.3545932779      -37.9106683463  TIP3      3992            0.0000000000
     30691      4152  TIP3      H1             33.3754030778      -30.9172607972      -38.7865914168  TIP3      3992            0.0000000000
     30692      4152  TIP3      H2             33.2899003508      -30.5952014324      -37.2875719022  TIP3      3992            0.0000000000
     30693      4153  TIP3      OH2            31.2036098133      -19.9143125573      -38.9249857873  TIP3      3993            0.0000000000
     30694      4153  TIP3      H1             30.3418360770      -19.4470469524      -38.9880055359  TIP3      3993            0.0000000000
     30695      4153  TIP3      H2             31.7294288969      -19.3884381147      -39.5627435154  TIP3      3993            0.0000000000
     30696      4154  TIP3      OH2            30.4577100635      -29.9011545701      -37.9072914926  TIP3      3994            0.0000000000
     30697      4154  TIP3      H1             31.1517056759      -29.2017807223      -37.9189318697  TIP3      3994            0.0000000000
     30698      4154  TIP3      H2             30.5959255698      -30.2578352538      -36.9986103369  TIP3      3994            0.0000000000
     30699      4155  TIP3      OH2            31.1350704874      -29.6420641475      -28.2552679076  TIP3      3995            0.0000000000
     30700      4155  TIP3      H1             31.7504872581      -29.0796171260      -27.7479548472  TIP3      3995            0.0000000000
     30701      4155  TIP3      H2             31.7792837203      -30.3302950973      -28.5406121155  TIP3      3995            0.0000000000
     30702      4156  TIP3      OH2            31.2848723627      -32.9684826206      -36.6896618030  TIP3      3996            0.0000000000
     30703      4156  TIP3      H1             30.8773563995      -32.6104049510      -35.8832281131  TIP3      3996            0.0000000000
     30704      4156  TIP3      H2             32.0450146080      -32.3550055917      -36.7715858874  TIP3      3996            0.0000000000
     30705      4157  TIP3      OH2            28.7847317216      -18.6898628848      -39.0667392351  TIP3      3997            0.0000000000
     30706      4157  TIP3      H1             28.9446374880      -17.8264749928      -39.5069339788  TIP3      3997            0.0000000000
     30707      4157  TIP3      H2             28.4212547569      -18.3496442532      -38.2090410674  TIP3      3997            0.0000000000
     30708      4158  TIP3      OH2            26.8359822541      -32.1007073496      -39.5446202878  TIP3      3998            0.0000000000
     30709      4158  TIP3      H1             26.6897683244      -31.2525799648      -39.0946970280  TIP3      3998            0.0000000000
     30710      4158  TIP3      H2             27.7404369164      -32.3224287344      -39.2464479767  TIP3      3998            0.0000000000
     30711      4159  TIP3      OH2            25.3385010697      -21.8718504737      -40.5162852102  TIP3      3999            0.0000000000
     30712      4159  TIP3      H1             26.0727562357      -21.3083876810      -40.2168335633  TIP3      3999            0.0000000000
     30713      4159  TIP3      H2             25.8452474344      -22.5246954987      -41.0493658010  TIP3      3999            0.0000000000
     30714      4160  TIP3      OH2            24.4579668590      -28.6088825571      -41.4073138518  TIP3      4000            0.0000000000
     30715      4160  TIP3      H1             23.6484423986      -28.1049630583      -41.2264510712  TIP3      4000            0.0000000000
     30716      4160  TIP3      H2             24.1587554057      -29.2733634076      -42.0614376892  TIP3      4000            0.0000000000
     30717      4161  TIP3      OH2            23.9359912328      -34.0807279048      -32.8855188508  TIP3      4001            0.0000000000
     30718      4161  TIP3      H1             23.7892323769      -34.2225298064      -33.8503586498  TIP3      4001            0.0000000000
     30719      4161  TIP3      H2             24.5447699102      -34.8273161816      -32.6893125350  TIP3      4001            0.0000000000
     30720      4162  TIP3      OH2            23.3649405854      -19.7264536231      -36.5880882824  TIP3      4002            0.0000000000
     30721      4162  TIP3      H1             22.7549138955      -19.2519801117      -37.1835060144  TIP3      4002            0.0000000000
     30722      4162  TIP3      H2             24.0488401870      -19.9151639641      -37.2400407142  TIP3      4002            0.0000000000
     30723      4163  TIP3      OH2            22.7559765300      -17.6375429452      -25.5233820116  TIP3      4003            0.0000000000
     30724      4163  TIP3      H1             23.4089076450      -18.0965337930      -24.9572966247  TIP3      4003            0.0000000000
     30725      4163  TIP3      H2             22.2947661924      -18.4322795384      -25.8620835685  TIP3      4003            0.0000000000
     30726      4164  TIP3      OH2            26.8323685635      -19.5642772125      -23.2221449070  TIP3      4004            0.0000000000
     30727      4164  TIP3      H1             27.3193681102      -18.8710636323      -23.7337730900  TIP3      4004            0.0000000000
     30728      4164  TIP3      H2             26.9083228192      -20.3341751506      -23.8148135343  TIP3      4004            0.0000000000
     30729      4165  TIP3      OH2            32.3065056309      -18.9448659684      -41.2435585769  TIP3      4005            0.0000000000
     30730      4165  TIP3      H1             31.8069875308      -19.7283093679      -41.5443072989  TIP3      4005            0.0000000000
     30731      4165  TIP3      H2             32.2852412843      -18.4577675010      -42.0964805473  TIP3      4005            0.0000000000
     30732      4166  TIP3      OH2            34.3579157025      -20.1562315936      -25.0346969844  TIP3      4006            0.0000000000
     30733      4166  TIP3      H1             33.8502658286      -20.9890734182      -24.8984020392  TIP3      4006            0.0000000000
     30734      4166  TIP3      H2             34.8273970532      -20.0878276755      -24.1941233186  TIP3      4006            0.0000000000
     30735      4167  TIP3      OH2            22.3334651344      -23.9179415563      -24.3906587277  TIP3      4007            0.0000000000
     30736      4167  TIP3      H1             21.6243538995      -24.4132231263      -23.9162333539  TIP3      4007            0.0000000000
     30737      4167  TIP3      H2             21.7953626655      -23.3564333436      -24.9907393131  TIP3      4007            0.0000000000
     30738      4168  TIP3      OH2            26.9360331358      -23.9092103890      -41.5221888765  TIP3      4008            0.0000000000
     30739      4168  TIP3      H1             27.5943926727      -24.1181829619      -40.8293248809  TIP3      4008            0.0000000000
     30740      4168  TIP3      H2             27.4715167726      -23.9725419949      -42.3322266579  TIP3      4008            0.0000000000
     30741      4169  TIP3      OH2            29.4171756726      -22.9698966761      -25.0965282317  TIP3      4009            0.0000000000
     30742      4169  TIP3      H1             29.8486086998      -22.8550386789      -25.9620331321  TIP3      4009            0.0000000000
     30743      4169  TIP3      H2             29.2150366762      -23.9174537713      -25.1002019351  TIP3      4009            0.0000000000
     30744      4170  TIP3      OH2            23.7481981702      -27.3228803486      -24.5362844782  TIP3      4010            0.0000000000
     30745      4170  TIP3      H1             24.6094625149      -27.7910371099      -24.6093147354  TIP3      4010            0.0000000000
     30746      4170  TIP3      H2             24.1734625115      -26.4440321844      -24.4069162599  TIP3      4010            0.0000000000
     30747      4171  TIP3      OH2            28.6350409207      -25.2688326848      -39.8848780202  TIP3      4011            0.0000000000
     30748      4171  TIP3      H1             27.8597514984      -25.7069943989      -39.4664359597  TIP3      4011            0.0000000000
     30749      4171  TIP3      H2             28.8645257981      -25.9023988005      -40.5905811788  TIP3      4011            0.0000000000
     30750      4172  TIP3      OH2            27.4797663478      -27.6980660009      -28.2320515811  TIP3      4012            0.0000000000
     30751      4172  TIP3      H1             26.7363348897      -27.1942999528      -27.8339128814  TIP3      4012            0.0000000000
     30752      4172  TIP3      H2             28.0507286838      -26.9672346873      -28.5254154955  TIP3      4012            0.0000000000
     30753      4173  TIP3      OH2            29.3926650544      -27.0790205273      -42.0863736534  TIP3      4013            0.0000000000
     30754      4173  TIP3      H1             29.5462149032      -27.0825614894      -43.0404296397  TIP3      4013            0.0000000000
     30755      4173  TIP3      H2             30.3164943800      -27.0721363495      -41.7273976825  TIP3      4013            0.0000000000
     30756      4174  TIP3      OH2            31.8932233239      -24.9792053066      -24.5443153482  TIP3      4014            0.0000000000
     30757      4174  TIP3      H1             32.8234505587      -24.7657448887      -24.3710280616  TIP3      4014            0.0000000000
     30758      4174  TIP3      H2             31.7993099956      -25.8061384582      -24.0522068127  TIP3      4014            0.0000000000
     30759      4175  TIP3      OH2            27.4121042212      -30.1174878818      -27.1115501485  TIP3      4015            0.0000000000
     30760      4175  TIP3      H1             27.9194571706      -30.8080553013      -27.5858921973  TIP3      4015            0.0000000000
     30761      4175  TIP3      H2             27.3225502628      -29.4081115820      -27.7866734652  TIP3      4015            0.0000000000
     30762      4176  TIP3      OH2            28.2773162945      -32.2204015663      -28.8981418284  TIP3      4016            0.0000000000
     30763      4176  TIP3      H1             28.6282551471      -31.5062406331      -29.4739000706  TIP3      4016            0.0000000000
     30764      4176  TIP3      H2             27.4199824519      -32.3927443122      -29.3298710137  TIP3      4016            0.0000000000
     30765      4177  TIP3      OH2            30.0672946988      -26.3379820266      -28.9125609331  TIP3      4017            0.0000000000
     30766      4177  TIP3      H1             30.9025747009      -26.3931851338      -29.4018659492  TIP3      4017            0.0000000000
     30767      4177  TIP3      H2             29.6320382090      -25.5812752355      -29.3509756264  TIP3      4017            0.0000000000
     30768      4178  TIP3      OH2            34.0889379342      -28.9928696369      -23.7392093556  TIP3      4018            0.0000000000
     30769      4178  TIP3      H1             34.4265548397      -29.0957525596      -24.6417319247  TIP3      4018            0.0000000000
     30770      4178  TIP3      H2             34.6432463194      -28.2944288305      -23.3618807880  TIP3      4018            0.0000000000
     30771      4179  TIP3      OH2            26.0008708131      -29.0700080870      -25.0376082907  TIP3      4019            0.0000000000
     30772      4179  TIP3      H1             25.4825486535      -29.8925281558      -24.9621232624  TIP3      4019            0.0000000000
     30773      4179  TIP3      H2             26.6717413528      -29.3427612544      -25.7039754920  TIP3      4019            0.0000000000
     30774      4180  TIP3      OH2            29.5207443377      -34.7652273214      -28.6666327088  TIP3      4020            0.0000000000
     30775      4180  TIP3      H1             29.2310115424      -33.8564433130      -28.9039306847  TIP3      4020            0.0000000000
     30776      4180  TIP3      H2             28.6674794941      -35.2404765904      -28.6505990062  TIP3      4020            0.0000000000
     30777      4181  TIP3      OH2            30.1257560452      -30.1229859914      -24.9162939959  TIP3      4021            0.0000000000
     30778      4181  TIP3      H1             30.3175865245      -29.9449425526      -23.9783646400  TIP3      4021            0.0000000000
     30779      4181  TIP3      H2             29.4620083308      -30.8213132274      -24.7935177836  TIP3      4021            0.0000000000
     30780      4182  TIP3      OH2            33.0929137131      -30.9774690531      -25.8460754079  TIP3      4022            0.0000000000
     30781      4182  TIP3      H1             32.2218566759      -31.3860637532      -25.7073805501  TIP3      4022            0.0000000000
     30782      4182  TIP3      H2             33.5984612989      -31.3800923791      -25.0987886816  TIP3      4022            0.0000000000
     30783      4183  TIP3      OH2            34.6533245161      -32.0681649375      -23.9066120929  TIP3      4023            0.0000000000
     30784      4183  TIP3      H1             34.6254085918      -33.0481024902      -24.0121882512  TIP3      4023            0.0000000000
     30785      4183  TIP3      H2             34.4692531422      -31.9288321959      -22.9588138494  TIP3      4023            0.0000000000
     30786      4184  TIP3      OH2            24.7387552231      -31.3363941768      -24.2880119853  TIP3      4024            0.0000000000
     30787      4184  TIP3      H1             25.5165785385      -31.9281734118      -24.3063054748  TIP3      4024            0.0000000000
     30788      4184  TIP3      H2             24.6918092483      -31.1751429816      -23.3276733417  TIP3      4024            0.0000000000
     30789      4185  TIP3      OH2            29.5846073727      -34.4866714800      -25.9826561257  TIP3      4025            0.0000000000
     30790      4185  TIP3      H1             30.4767125498      -34.6375272658      -25.6336148402  TIP3      4025            0.0000000000
     30791      4185  TIP3      H2             29.7750845266      -34.4172077129      -26.9458506187  TIP3      4025            0.0000000000
     30792      4186  TIP3      OH2            28.9045118095      -33.8685536982      -23.3776530182  TIP3      4026            0.0000000000
     30793      4186  TIP3      H1             29.1862214921      -33.8572595339      -24.3137162540  TIP3      4026            0.0000000000
     30794      4186  TIP3      H2             28.8900075009      -32.9317277416      -23.1047379152  TIP3      4026            0.0000000000
     30795      4187  TIP3      OH2            28.9018230924      -15.9215921452      -39.8327630713  TIP3      4027            0.0000000000
     30796      4187  TIP3      H1             29.8453551685      -15.9046932234      -40.0683414706  TIP3      4027            0.0000000000
     30797      4187  TIP3      H2             28.5437415630      -15.6122219584      -40.6775668649  TIP3      4027            0.0000000000
     30798      4188  TIP3      OH2            22.6080074950      -21.9763481234      -41.3847448737  TIP3      4028            0.0000000000
     30799      4188  TIP3      H1             23.5399353650      -22.1364553318      -41.1480688025  TIP3      4028            0.0000000000
     30800      4188  TIP3      H2             22.5679908314      -22.2430027571      -42.3312247241  TIP3      4028            0.0000000000
     30801      4189  TIP3      OH2            21.8101063073      -16.9790912635      -36.3423486065  TIP3      4029            0.0000000000
     30802      4189  TIP3      H1             20.9739614474      -17.3756428807      -36.6873453876  TIP3      4029            0.0000000000
     30803      4189  TIP3      H2             22.1389244484      -17.6849563859      -35.7583562907  TIP3      4029            0.0000000000
     30804      4190  TIP3      OH2            22.1421581410      -18.6568433266      -34.1716386785  TIP3      4030            0.0000000000
     30805      4190  TIP3      H1             21.8414590873      -19.5609323952      -34.3606584467  TIP3      4030            0.0000000000
     30806      4190  TIP3      H2             22.7452252258      -18.8101401089      -33.4152266024  TIP3      4030            0.0000000000
     30807      4191  TIP3      OH2            22.4470032026      -25.1614443805      -31.8420464763  TIP3      4031            0.0000000000
     30808      4191  TIP3      H1             22.8637675553      -25.1898508633      -32.7212669506  TIP3      4031            0.0000000000
     30809      4191  TIP3      H2             23.2488100069      -25.3316806863      -31.2986436314  TIP3      4031            0.0000000000
     30810      4192  TIP3      OH2            22.3918981405      -29.7631394267      -25.7542616132  TIP3      4032            0.0000000000
     30811      4192  TIP3      H1             22.9182023317      -29.1462830245      -25.2089445133  TIP3      4032            0.0000000000
     30812      4192  TIP3      H2             22.0653482577      -30.4099495049      -25.1025294198  TIP3      4032            0.0000000000
     30813      4193  TIP3      OH2            23.2867731440      -31.5427746653      -31.9605155609  TIP3      4033            0.0000000000
     30814      4193  TIP3      H1             23.4625291579      -32.4116695282      -32.3911390197  TIP3      4033            0.0000000000
     30815      4193  TIP3      H2             24.0735418293      -31.0363649601      -32.2593201795  TIP3      4033            0.0000000000
     30816      4194  TIP3      OH2            21.6915232525      -28.6949903772      -31.5929878653  TIP3      4034            0.0000000000
     30817      4194  TIP3      H1             22.1250664428      -29.5594442931      -31.5963189410  TIP3      4034            0.0000000000
     30818      4194  TIP3      H2             22.3872558925      -28.1348210260      -31.2246742229  TIP3      4034            0.0000000000
     30819      4195  TIP3      OH2            21.4285753441      -32.1030551307      -37.8468312860  TIP3      4035            0.0000000000
     30820      4195  TIP3      H1             20.4751580074      -31.8698229217      -37.8382314088  TIP3      4035            0.0000000000
     30821      4195  TIP3      H2             21.7910592094      -31.4779925338      -38.5180524704  TIP3      4035            0.0000000000
     30822      4196  TIP3      OH2            21.4917563718      -33.6644847409      -29.5600573901  TIP3      4036            0.0000000000
     30823      4196  TIP3      H1             20.8607551657      -33.4592110882      -28.8538567514  TIP3      4036            0.0000000000
     30824      4196  TIP3      H2             21.0585786621      -33.1991103833      -30.3085375589  TIP3      4036            0.0000000000
     30825      4197  TIP3      OH2            23.1906691472      -20.3956591025      -24.7537694504  TIP3      4037            0.0000000000
     30826      4197  TIP3      H1             22.5550784757      -20.5382133771      -25.4840824978  TIP3      4037            0.0000000000
     30827      4197  TIP3      H2             23.7728302212      -21.1734478727      -24.8315321526  TIP3      4037            0.0000000000
     30828      4198  TIP3      OH2            26.7935981170      -19.2382736786      -28.7062932084  TIP3      4038            0.0000000000
     30829      4198  TIP3      H1             26.9896000183      -18.3289528654      -29.0269224699  TIP3      4038            0.0000000000
     30830      4198  TIP3      H2             27.7044581343      -19.6020441422      -28.7252747405  TIP3      4038            0.0000000000
     30831      4199  TIP3      OH2            31.6441585345      -18.1046041202      -26.4601099294  TIP3      4039            0.0000000000
     30832      4199  TIP3      H1             31.5403894985      -18.1707617993      -25.4862617784  TIP3      4039            0.0000000000
     30833      4199  TIP3      H2             32.2960157198      -17.3827987436      -26.5768216342  TIP3      4039            0.0000000000
     30834      4200  TIP3      OH2            33.7386105528      -16.3553645574      -26.8639871809  TIP3      4040            0.0000000000
     30835      4200  TIP3      H1             34.6089665574      -16.7803434715      -26.9262861954  TIP3      4040            0.0000000000
     30836      4200  TIP3      H2             33.8036632479      -15.8408080288      -26.0393487379  TIP3      4040            0.0000000000
     30837      4201  TIP3      OH2            24.5777921767      -16.0624496957      -28.9778806994  TIP3      4041            0.0000000000
     30838      4201  TIP3      H1             23.9480779815      -15.5582447830      -29.5285249756  TIP3      4041            0.0000000000
     30839      4201  TIP3      H2             24.5602282119      -15.5375991239      -28.1580770929  TIP3      4041            0.0000000000
     30840      4202  TIP3      OH2            26.9374670550      -16.8468756747      -29.9671214468  TIP3      4042            0.0000000000
     30841      4202  TIP3      H1             26.1762897313      -16.5023517854      -29.4461865772  TIP3      4042            0.0000000000
     30842      4202  TIP3      H2             27.0090671654      -16.1296947138      -30.6420138897  TIP3      4042            0.0000000000
     30843      4203  TIP3      OH2            31.0516639312      -17.2395665576      -30.9293960915  TIP3      4043            0.0000000000
     30844      4203  TIP3      H1             30.9338480472      -16.4374120443      -31.4632464945  TIP3      4043            0.0000000000
     30845      4203  TIP3      H2             31.3749727630      -16.7983838458      -30.1078848768  TIP3      4043            0.0000000000
     30846      4204  TIP3      OH2            34.0154612296      -18.1419280406      -29.7384001251  TIP3      4044            0.0000000000
     30847      4204  TIP3      H1             33.0655319524      -18.1520239468      -29.5636465306  TIP3      4044            0.0000000000
     30848      4204  TIP3      H2             34.0552661175      -17.2538824852      -30.1537111182  TIP3      4044            0.0000000000
     30849      4205  TIP3      OH2            24.1366761425      -18.2208727914      -32.3318579996  TIP3      4045            0.0000000000
     30850      4205  TIP3      H1             24.0802548893      -18.7591325085      -31.5062140306  TIP3      4045            0.0000000000
     30851      4205  TIP3      H2             25.0391414596      -18.4698238259      -32.6524459700  TIP3      4045            0.0000000000
     30852      4206  TIP3      OH2            26.4671570995      -18.7411041975      -33.4402748113  TIP3      4046            0.0000000000
     30853      4206  TIP3      H1             26.6584482887      -19.6583913721      -33.7361140727  TIP3      4046            0.0000000000
     30854      4206  TIP3      H2             27.3027350768      -18.5780447040      -32.9369164052  TIP3      4046            0.0000000000
     30855      4207  TIP3      OH2            28.8991194544      -18.4989861523      -32.3708174515  TIP3      4047            0.0000000000
     30856      4207  TIP3      H1             29.1915214274      -19.4516253855      -32.3929690750  TIP3      4047            0.0000000000
     30857      4207  TIP3      H2             29.1153608419      -18.3094698322      -31.4450196815  TIP3      4047            0.0000000000
     30858      4208  TIP3      OH2            32.1046411295      -32.6157831691      -33.7594862731  TIP3      4048            0.0000000000
     30859      4208  TIP3      H1             32.4151400348      -33.5381524483      -33.6321482357  TIP3      4048            0.0000000000
     30860      4208  TIP3      H2             32.9201089815      -32.1301744586      -33.9837118737  TIP3      4048            0.0000000000
     30861      4209  TIP3      OH2            23.9496208811      -34.2203323969      -35.5973022356  TIP3      4049            0.0000000000
     30862      4209  TIP3      H1             23.4957121204      -34.1187553500      -36.4513955432  TIP3      4049            0.0000000000
     30863      4209  TIP3      H2             24.6941221678      -34.7903857838      -35.8330072801  TIP3      4049            0.0000000000
     30864      4210  TIP3      OH2            23.2048986703      -33.9532613873      -39.0046186426  TIP3      4050            0.0000000000
     30865      4210  TIP3      H1             23.3819487239      -33.3949105329      -39.7862917945  TIP3      4050            0.0000000000
     30866      4210  TIP3      H2             22.5116493898      -33.4358049555      -38.5586375021  TIP3      4050            0.0000000000
     30867      4211  TIP3      OH2            28.5567974968      -34.0823644524      -36.3879677012  TIP3      4051            0.0000000000
     30868      4211  TIP3      H1             29.4771497759      -34.3006035314      -36.6002477903  TIP3      4051            0.0000000000
     30869      4211  TIP3      H2             28.6239108421      -33.9904932452      -35.4247767371  TIP3      4051            0.0000000000
     30870      4212  TIP3      OH2            35.4550887727      -35.3241448346      -34.1322284341  TIP3      4052            0.0000000000
     30871      4212  TIP3      H1             34.9727670760      -34.5912003804      -34.5563155366  TIP3      4052            0.0000000000
     30872      4212  TIP3      H2             34.6715275734      -35.7455794718      -33.7190701649  TIP3      4052            0.0000000000
     30873      4213  TIP3      OH2            22.7923288553      -18.4051571994      -38.8483409465  TIP3      4053            0.0000000000
     30874      4213  TIP3      H1             21.8995345633      -18.4478326886      -39.2432587255  TIP3      4053            0.0000000000
     30875      4213  TIP3      H2             23.0241870610      -17.5089424616      -39.1471704185  TIP3      4053            0.0000000000
     30876      4214  TIP3      OH2            24.4641422692      -32.2509922591      -40.8133568061  TIP3      4054            0.0000000000
     30877      4214  TIP3      H1             24.8339126783      -32.2115956754      -41.7095762917  TIP3      4054            0.0000000000
     30878      4214  TIP3      H2             25.2774007126      -32.3704204076      -40.2837349800  TIP3      4054            0.0000000000
     30879      4215  TIP3      OH2            29.7687413171      -32.1050149210      -39.2617816629  TIP3      4055            0.0000000000
     30880      4215  TIP3      H1             29.9608867161      -32.5556757422      -38.4359562066  TIP3      4055            0.0000000000
     30881      4215  TIP3      H2             29.9573068047      -31.1896823657      -38.9716661508  TIP3      4055            0.0000000000
     30882      4216  TIP3      OH2            32.0309172598      -16.0379159568      -40.6089573641  TIP3      4056            0.0000000000
     30883      4216  TIP3      H1             32.7691754738      -16.6224152084      -40.8427237892  TIP3      4056            0.0000000000
     30884      4216  TIP3      H2             31.5691214296      -15.9645706783      -41.4692639394  TIP3      4056            0.0000000000
     30885      4217  TIP3      OH2            23.7153313883      -34.7007882071      -26.0009081179  TIP3      4057            0.0000000000
     30886      4217  TIP3      H1             23.3433096258      -35.4916076751      -25.5760671038  TIP3      4057            0.0000000000
     30887      4217  TIP3      H2             24.5425629621      -34.5867546172      -25.4806151111  TIP3      4057            0.0000000000
     30888      4218  TIP3      OH2            26.0694612488      -34.5117119822      -24.2337683578  TIP3      4058            0.0000000000
     30889      4218  TIP3      H1             26.9551106144      -34.1499085154      -24.0162480003  TIP3      4058            0.0000000000
     30890      4218  TIP3      H2             26.3098862412      -35.4557580143      -24.3383052555  TIP3      4058            0.0000000000
     30891      4219  TIP3      OH2            24.2670038732      -18.0987329646      -41.7311704771  TIP3      4059            0.0000000000
     30892      4219  TIP3      H1             23.9984132055      -17.2689068752      -41.3081881217  TIP3      4059            0.0000000000
     30893      4219  TIP3      H2             25.2250077447      -18.0008637049      -41.7794710436  TIP3      4059            0.0000000000
     30894      4220  TIP3      OH2            34.6444901771      -34.7581774303      -24.9551422060  TIP3      4060            0.0000000000
     30895      4220  TIP3      H1             33.9339140006      -35.2206519255      -24.4612608237  TIP3      4060            0.0000000000
     30896      4220  TIP3      H2             35.4389119838      -35.0020182188      -24.4380877336  TIP3      4060            0.0000000000
     30897      4221  TIP3      OH2           -23.1440339326       -6.1238784479      -35.8653390297  TIP3      4061            0.0000000000
     30898      4221  TIP3      H1            -23.5279935819       -5.2829246034      -36.1844783648  TIP3      4061            0.0000000000
     30899      4221  TIP3      H2            -23.5890045990       -6.7960797123      -36.4175671959  TIP3      4061            0.0000000000
     30900      4222  TIP3      OH2           -24.1158341348       -7.2569579213      -32.4230287761  TIP3      4062            0.0000000000
     30901      4222  TIP3      H1            -24.0167320960       -7.8458518161      -31.6363923946  TIP3      4062            0.0000000000
     30902      4222  TIP3      H2            -24.6917532436       -7.8361673896      -32.9711490363  TIP3      4062            0.0000000000
     30903      4223  TIP3      OH2           -31.8879637770       -7.0823814595      -29.8509199467  TIP3      4063            0.0000000000
     30904      4223  TIP3      H1            -32.0732771746       -8.0476321718      -29.8585437553  TIP3      4063            0.0000000000
     30905      4223  TIP3      H2            -31.2176197851       -6.9884157763      -30.5496942977  TIP3      4063            0.0000000000
     30906      4224  TIP3      OH2           -20.5144734750       -4.2411412349      -34.2848300849  TIP3      4064            0.0000000000
     30907      4224  TIP3      H1            -20.6083675242       -5.1982475622      -34.4200664927  TIP3      4064            0.0000000000
     30908      4224  TIP3      H2            -19.6895263003       -4.1893057496      -33.7752289468  TIP3      4064            0.0000000000
     30909      4225  TIP3      OH2           -30.9636146990       -2.5842359405      -32.7546859821  TIP3      4065            0.0000000000
     30910      4225  TIP3      H1            -31.4601433165       -3.4228342112      -32.7457762312  TIP3      4065            0.0000000000
     30911      4225  TIP3      H2            -30.0687571702       -2.9659313091      -32.6465906984  TIP3      4065            0.0000000000
     30912      4226  TIP3      OH2           -34.2061706961       -8.2816008350      -36.5745671897  TIP3      4066            0.0000000000
     30913      4226  TIP3      H1            -34.3507737991       -8.0010208786      -35.6473902484  TIP3      4066            0.0000000000
     30914      4226  TIP3      H2            -34.7901234397       -9.0497892850      -36.6341533096  TIP3      4066            0.0000000000
     30915      4227  TIP3      OH2           -33.8763004002       -7.2970557408      -34.1635323008  TIP3      4067            0.0000000000
     30916      4227  TIP3      H1            -33.1296141510       -7.8184445930      -33.7674543421  TIP3      4067            0.0000000000
     30917      4227  TIP3      H2            -33.3903190548       -6.7151183629      -34.7690281209  TIP3      4067            0.0000000000
     30918      4228  TIP3      OH2           -23.5682754092        1.0098475197      -33.9940945529  TIP3      4068            0.0000000000
     30919      4228  TIP3      H1            -22.8387982701        0.4471421263      -34.3566900706  TIP3      4068            0.0000000000
     30920      4228  TIP3      H2            -23.6608722302        0.6438481882      -33.1062326881  TIP3      4068            0.0000000000
     30921      4229  TIP3      OH2           -25.0099804807       -4.6136178941      -32.4445441590  TIP3      4069            0.0000000000
     30922      4229  TIP3      H1            -25.0527707649       -5.5928156474      -32.5104505292  TIP3      4069            0.0000000000
     30923      4229  TIP3      H2            -25.4514634569       -4.4389418991      -31.6003887965  TIP3      4069            0.0000000000
     30924      4230  TIP3      OH2           -17.3490174186      -13.8192995217      -30.4383435618  TIP3      4070            0.0000000000
     30925      4230  TIP3      H1            -17.1649241201      -12.9652304342      -29.9798569113  TIP3      4070            0.0000000000
     30926      4230  TIP3      H2            -17.4634837992      -13.4438448135      -31.3451444833  TIP3      4070            0.0000000000
     30927      4231  TIP3      OH2           -21.9892934855      -10.1905571602      -31.1790986561  TIP3      4071            0.0000000000
     30928      4231  TIP3      H1            -21.9256591179      -11.1115031354      -30.8558232103  TIP3      4071            0.0000000000
     30929      4231  TIP3      H2            -22.1802482980      -10.3534173696      -32.1226182676  TIP3      4071            0.0000000000
     30930      4232  TIP3      OH2           -29.8742345935      -12.0828805443      -34.4871617256  TIP3      4072            0.0000000000
     30931      4232  TIP3      H1            -29.5157933037      -11.2934361195      -34.9481491483  TIP3      4072            0.0000000000
     30932      4232  TIP3      H2            -30.2537159265      -12.5609868938      -35.2524478990  TIP3      4072            0.0000000000
     30933      4233  TIP3      OH2           -22.4775882498      -12.0804984784      -36.0324537393  TIP3      4073            0.0000000000
     30934      4233  TIP3      H1            -21.7773750782      -12.4752423229      -35.4522005909  TIP3      4073            0.0000000000
     30935      4233  TIP3      H2            -21.9592354573      -11.4424245215      -36.5587852977  TIP3      4073            0.0000000000
     30936      4234  TIP3      OH2           -33.3946567196      -10.4441413863      -33.7862528948  TIP3      4074            0.0000000000
     30937      4234  TIP3      H1            -32.6647432060      -10.2922107892      -33.1492917466  TIP3      4074            0.0000000000
     30938      4234  TIP3      H2            -32.8857586242      -10.1215134384      -34.5510840828  TIP3      4074            0.0000000000
     30939      4235  TIP3      OH2           -28.1054502575       -8.0873934993      -34.3257916508  TIP3      4075            0.0000000000
     30940      4235  TIP3      H1            -27.1758045963       -8.3476710422      -34.1960040946  TIP3      4075            0.0000000000
     30941      4235  TIP3      H2            -28.3608441824       -8.7618417786      -34.9876888757  TIP3      4075            0.0000000000
     30942      4236  TIP3      OH2           -17.1540738757      -11.7758031504      -28.6670945921  TIP3      4076            0.0000000000
     30943      4236  TIP3      H1            -17.5637120407      -11.0502980932      -29.1825671034  TIP3      4076            0.0000000000
     30944      4236  TIP3      H2            -16.9972329034      -11.2721487131      -27.8416757047  TIP3      4076            0.0000000000
     30945      4237  TIP3      OH2           -30.5925964409      -13.1542735838      -30.1732964554  TIP3      4077            0.0000000000
     30946      4237  TIP3      H1            -30.8053279786      -12.5842041113      -30.9592179513  TIP3      4077            0.0000000000
     30947      4237  TIP3      H2            -31.2372532076      -12.8066712142      -29.5303585964  TIP3      4077            0.0000000000
     30948      4238  TIP3      OH2           -23.8677799165       -3.5961667409      -36.7634080497  TIP3      4078            0.0000000000
     30949      4238  TIP3      H1            -24.0774210178       -3.8901104370      -37.6757113015  TIP3      4078            0.0000000000
     30950      4238  TIP3      H2            -23.3673610276       -2.7893615014      -36.9554601107  TIP3      4078            0.0000000000
     30951      4239  TIP3      OH2           -28.1553914533       -5.2498506972      -30.1601397025  TIP3      4079            0.0000000000
     30952      4239  TIP3      H1            -29.0332264564       -4.8342183570      -30.0910697295  TIP3      4079            0.0000000000
     30953      4239  TIP3      H2            -27.6050286611       -4.4703778904      -29.9822678616  TIP3      4079            0.0000000000
     30954      4240  TIP3      OH2           -20.6372791661      -13.2246929227      -34.4200750088  TIP3      4080            0.0000000000
     30955      4240  TIP3      H1            -20.7892958817      -13.6010426361      -33.5486049276  TIP3      4080            0.0000000000
     30956      4240  TIP3      H2            -19.7862207777      -12.7631998073      -34.2436950587  TIP3      4080            0.0000000000
     30957      4241  TIP3      OH2           -31.1848049671      -11.4180926514      -32.1237435736  TIP3      4081            0.0000000000
     30958      4241  TIP3      H1            -30.8175367088      -10.5243252255      -31.9510850717  TIP3      4081            0.0000000000
     30959      4241  TIP3      H2            -30.6063546499      -11.6848942179      -32.8735402901  TIP3      4081            0.0000000000
     30960      4242  TIP3      OH2           -30.1583542808       -3.5165669512      -29.2421666725  TIP3      4082            0.0000000000
     30961      4242  TIP3      H1            -29.9144309265       -2.6031271289      -29.4792360753  TIP3      4082            0.0000000000
     30962      4242  TIP3      H2            -31.0276447881       -3.3920176445      -28.8138389223  TIP3      4082            0.0000000000
     30963      4243  TIP3      OH2           -33.9855944970       -3.8436894241      -38.3393740687  TIP3      4083            0.0000000000
     30964      4243  TIP3      H1            -33.9367859883       -3.4485861175      -39.2346799364  TIP3      4083            0.0000000000
     30965      4243  TIP3      H2            -33.5289041922       -3.1759600644      -37.7817285143  TIP3      4083            0.0000000000
     30966      4244  TIP3      OH2           -20.0994713514       -2.3144669522      -31.7140786740  TIP3      4084            0.0000000000
     30967      4244  TIP3      H1            -20.8624067638       -1.7620525612      -31.4571239186  TIP3      4084            0.0000000000
     30968      4244  TIP3      H2            -19.5758131397       -1.5894202958      -32.1384545939  TIP3      4084            0.0000000000
     30969      4245  TIP3      OH2           -20.1134615996      -13.5497507781      -30.4235260485  TIP3      4085            0.0000000000
     30970      4245  TIP3      H1            -20.2167728636      -12.7896487947      -31.0244283378  TIP3      4085            0.0000000000
     30971      4245  TIP3      H2            -19.1555223530      -13.5244514034      -30.2307232552  TIP3      4085            0.0000000000
     30972      4246  TIP3      OH2           -27.1621070208      -15.8901602514      -32.6314494371  TIP3      4086            0.0000000000
     30973      4246  TIP3      H1            -27.4989587867      -16.8124090381      -32.6900639467  TIP3      4086            0.0000000000
     30974      4246  TIP3      H2            -27.9969586964      -15.3848747814      -32.4349144794  TIP3      4086            0.0000000000
     30975      4247  TIP3      OH2           -21.5929972071       -0.5215573008      -35.0163773071  TIP3      4087            0.0000000000
     30976      4247  TIP3      H1            -21.3375464920       -1.2429181004      -35.6414665634  TIP3      4087            0.0000000000
     30977      4247  TIP3      H2            -20.9095374390        0.1652117241      -35.2333924533  TIP3      4087            0.0000000000
     30978      4248  TIP3      OH2           -20.8252302121       -2.5691742678      -36.5826416958  TIP3      4088            0.0000000000
     30979      4248  TIP3      H1            -20.7828969680       -3.2060450498      -37.3357464768  TIP3      4088            0.0000000000
     30980      4248  TIP3      H2            -20.8160333555       -3.1576987025      -35.7959315881  TIP3      4088            0.0000000000
     30981      4249  TIP3      OH2           -19.0529207524       -4.0392984947      -27.8734129220  TIP3      4089            0.0000000000
     30982      4249  TIP3      H1            -18.9976975315       -4.7873912594      -28.5230664317  TIP3      4089            0.0000000000
     30983      4249  TIP3      H2            -18.7888066254       -3.2671026869      -28.4255120278  TIP3      4089            0.0000000000
     30984      4250  TIP3      OH2           -24.4964986883       -6.9435380007      -38.3831256640  TIP3      4090            0.0000000000
     30985      4250  TIP3      H1            -25.3125532338       -6.4737527174      -38.6504164560  TIP3      4090            0.0000000000
     30986      4250  TIP3      H2            -23.8098561311       -6.3513675925      -38.7367483842  TIP3      4090            0.0000000000
     30987      4251  TIP3      OH2           -23.9914767516       -8.9315986923      -41.0022176950  TIP3      4091            0.0000000000
     30988      4251  TIP3      H1            -23.5168655037       -8.2486594740      -40.4762330359  TIP3      4091            0.0000000000
     30989      4251  TIP3      H2            -24.2830589474       -9.5286734905      -40.2831058293  TIP3      4091            0.0000000000
     30990      4252  TIP3      OH2           -16.7364451576       -7.3004057812      -29.9111196812  TIP3      4092            0.0000000000
     30991      4252  TIP3      H1            -17.6152168616       -6.8598768322      -29.9744099431  TIP3      4092            0.0000000000
     30992      4252  TIP3      H2            -16.5773388548       -7.6025846357      -30.8188383002  TIP3      4092            0.0000000000
     30993      4253  TIP3      OH2           -20.6980377230       -6.6603250341      -37.2326149277  TIP3      4093            0.0000000000
     30994      4253  TIP3      H1            -21.4304873322       -6.7001529581      -36.5811038505  TIP3      4093            0.0000000000
     30995      4253  TIP3      H2            -19.9996250423       -7.2031701983      -36.7876257865  TIP3      4093            0.0000000000
     30996      4254  TIP3      OH2           -21.0311150246       -7.7421872596      -28.7720147020  TIP3      4094            0.0000000000
     30997      4254  TIP3      H1            -21.7237179664       -7.5802056978      -28.0991080697  TIP3      4094            0.0000000000
     30998      4254  TIP3      H2            -21.4394905653       -8.4535904401      -29.2846376971  TIP3      4094            0.0000000000
     30999      4255  TIP3      OH2           -29.6161991366       -6.1219131863      -35.3577266124  TIP3      4095            0.0000000000
     31000      4255  TIP3      H1            -29.7499775223       -6.4862964945      -36.2555769749  TIP3      4095            0.0000000000
     31001      4255  TIP3      H2            -29.1591772588       -6.8774122251      -34.9239020239  TIP3      4095            0.0000000000
     31002      4256  TIP3      OH2           -28.1692759215       -3.0396400547      -32.6124851421  TIP3      4096            0.0000000000
     31003      4256  TIP3      H1            -28.2247299841       -2.8474726061      -33.5742748193  TIP3      4096            0.0000000000
     31004      4256  TIP3      H2            -27.2220199919       -3.1911829822      -32.4984189668  TIP3      4096            0.0000000000
     31005      4257  TIP3      OH2           -28.7745338764       -7.5400955090      -31.4867116848  TIP3      4097            0.0000000000
     31006      4257  TIP3      H1            -28.8595228572       -7.5884692307      -32.4648236861  TIP3      4097            0.0000000000
     31007      4257  TIP3      H2            -28.4757849148       -6.6246159132      -31.3277925072  TIP3      4097            0.0000000000
     31008      4258  TIP3      OH2           -22.8170914578       -1.5746090356      -30.9884888031  TIP3      4098            0.0000000000
     31009      4258  TIP3      H1            -22.5931819082       -0.8792631811      -30.3360883675  TIP3      4098            0.0000000000
     31010      4258  TIP3      H2            -23.7286494425       -1.8022786048      -30.6692197769  TIP3      4098            0.0000000000
     31011      4259  TIP3      OH2           -28.2629121182       -3.4082447388      -27.2258792049  TIP3      4099            0.0000000000
     31012      4259  TIP3      H1            -28.7305576986       -2.5882925059      -26.9514400460  TIP3      4099            0.0000000000
     31013      4259  TIP3      H2            -28.9213116517       -3.7322189004      -27.8745929864  TIP3      4099            0.0000000000
     31014      4260  TIP3      OH2           -22.0091656834       -7.6203979581      -39.6038794838  TIP3      4100            0.0000000000
     31015      4260  TIP3      H1            -21.4449311898       -7.3462743477      -38.8518996835  TIP3      4100            0.0000000000
     31016      4260  TIP3      H2            -21.7244936737       -7.0002727697      -40.3153589664  TIP3      4100            0.0000000000
     31017      4261  TIP3      OH2           -30.9189769796       -6.7308212815      -27.2589568499  TIP3      4101            0.0000000000
     31018      4261  TIP3      H1            -31.4585878647       -6.3519230577      -26.5464308482  TIP3      4101            0.0000000000
     31019      4261  TIP3      H2            -31.4794283881       -6.7071160362      -28.0626203211  TIP3      4101            0.0000000000
     31020      4262  TIP3      OH2           -24.3724663858       -0.2691567624      -36.3247691617  TIP3      4102            0.0000000000
     31021      4262  TIP3      H1            -24.2919559857       -0.8942261072      -35.5869558342  TIP3      4102            0.0000000000
     31022      4262  TIP3      H2            -24.1964881601        0.5924300899      -35.9026342557  TIP3      4102            0.0000000000
     31023      4263  TIP3      OH2           -29.9865164196       -1.3885215520      -26.4801012045  TIP3      4103            0.0000000000
     31024      4263  TIP3      H1            -29.9727717287       -1.0386925937      -27.4042107014  TIP3      4103            0.0000000000
     31025      4263  TIP3      H2            -30.8711472929       -1.1578535758      -26.1464461083  TIP3      4103            0.0000000000
     31026      4264  TIP3      OH2           -18.2834553038      -16.0780905295      -39.8758204716  TIP3      4104            0.0000000000
     31027      4264  TIP3      H1            -19.1873317090      -15.7906944316      -39.6115644594  TIP3      4104            0.0000000000
     31028      4264  TIP3      H2            -17.8525348974      -15.2137726044      -40.0359404094  TIP3      4104            0.0000000000
     31029      4265  TIP3      OH2           -30.4655090073       -7.3428394139      -37.8129539968  TIP3      4105            0.0000000000
     31030      4265  TIP3      H1            -30.8951145623       -6.5638789611      -38.2480552209  TIP3      4105            0.0000000000
     31031      4265  TIP3      H2            -31.2313923167       -7.9229892596      -37.6685154278  TIP3      4105            0.0000000000
     31032      4266  TIP3      OH2           -17.1336251848       -1.3749263757      -41.1581222011  TIP3      4106            0.0000000000
     31033      4266  TIP3      H1            -16.8864172857       -0.4403634786      -40.9575636676  TIP3      4106            0.0000000000
     31034      4266  TIP3      H2            -16.2746184957       -1.8244174516      -41.1297856027  TIP3      4106            0.0000000000
     31035      4267  TIP3      OH2           -33.9649927360       -4.8631364016      -28.7990782068  TIP3      4107            0.0000000000
     31036      4267  TIP3      H1            -34.6921247491       -4.4852476882      -29.3492217147  TIP3      4107            0.0000000000
     31037      4267  TIP3      H2            -33.5050184853       -5.4435030421      -29.4431641459  TIP3      4107            0.0000000000
     31038      4268  TIP3      OH2           -34.0826623010       -1.7772212588      -32.5870564379  TIP3      4108            0.0000000000
     31039      4268  TIP3      H1            -33.4634031552       -1.9761974805      -31.8648821767  TIP3      4108            0.0000000000
     31040      4268  TIP3      H2            -34.9470276299       -1.7146568466      -32.1392932591  TIP3      4108            0.0000000000
     31041      4269  TIP3      OH2           -16.7198967579       -1.0933851573      -26.4244945197  TIP3      4109            0.0000000000
     31042      4269  TIP3      H1            -16.6237834373       -2.0538308945      -26.5568035599  TIP3      4109            0.0000000000
     31043      4269  TIP3      H2            -17.6244748151       -1.0830192659      -26.0410999411  TIP3      4109            0.0000000000
     31044      4270  TIP3      OH2           -25.1348859329       -1.9982761674      -26.6012670952  TIP3      4110            0.0000000000
     31045      4270  TIP3      H1            -25.4020786097       -1.0623512201      -26.6774994592  TIP3      4110            0.0000000000
     31046      4270  TIP3      H2            -25.5491132122       -2.3836098783      -27.4053678542  TIP3      4110            0.0000000000
     31047      4271  TIP3      OH2           -24.6872900229        2.2210000565      -37.9768641888  TIP3      4111            0.0000000000
     31048      4271  TIP3      H1            -24.8662776492        2.6136041624      -38.8641079893  TIP3      4111            0.0000000000
     31049      4271  TIP3      H2            -24.7939716142        3.0123023305      -37.4013230633  TIP3      4111            0.0000000000
     31050      4272  TIP3      OH2           -31.5549750838        0.2977780109      -35.6269947347  TIP3      4112            0.0000000000
     31051      4272  TIP3      H1            -31.2623189747       -0.2221136287      -34.8546590602  TIP3      4112            0.0000000000
     31052      4272  TIP3      H2            -32.3446354065       -0.1635554686      -35.9624065256  TIP3      4112            0.0000000000
     31053      4273  TIP3      OH2           -21.9267960002        1.1883176540      -40.7530555939  TIP3      4113            0.0000000000
     31054      4273  TIP3      H1            -21.2819883313        0.5769653886      -41.1559803644  TIP3      4113            0.0000000000
     31055      4273  TIP3      H2            -21.7965884105        1.0075648653      -39.7996756582  TIP3      4113            0.0000000000
     31056      4274  TIP3      OH2           -22.2267438161        1.2195556837      -38.0558763498  TIP3      4114            0.0000000000
     31057      4274  TIP3      H1            -23.1744877022        1.4859653999      -38.0690268662  TIP3      4114            0.0000000000
     31058      4274  TIP3      H2            -22.2700660242        0.4375226174      -37.4881652044  TIP3      4114            0.0000000000
     31059      4275  TIP3      OH2           -20.2731854000      -10.2228031786      -26.1044488097  TIP3      4115            0.0000000000
     31060      4275  TIP3      H1            -19.6230109227       -9.6143441151      -26.5226020104  TIP3      4115            0.0000000000
     31061      4275  TIP3      H2            -19.7736528694      -10.4138117695      -25.2965243849  TIP3      4115            0.0000000000
     31062      4276  TIP3      OH2           -32.4384698686       -3.0559325197      -27.6292546635  TIP3      4116            0.0000000000
     31063      4276  TIP3      H1            -32.1720305431       -3.5235470478      -26.8089108987  TIP3      4116            0.0000000000
     31064      4276  TIP3      H2            -33.0708023911       -3.7053290904      -28.0184000514  TIP3      4116            0.0000000000
     31065      4277  TIP3      OH2           -29.2755123254      -14.4076951174      -32.0943768257  TIP3      4117            0.0000000000
     31066      4277  TIP3      H1            -30.0664988002      -14.5101916291      -32.6676312497  TIP3      4117            0.0000000000
     31067      4277  TIP3      H2            -29.6868945719      -14.0694258036      -31.2686833259  TIP3      4117            0.0000000000
     31068      4278  TIP3      OH2           -24.8167351237      -15.3964384467      -28.4232302064  TIP3      4118            0.0000000000
     31069      4278  TIP3      H1            -24.7841874420      -15.1551875207      -27.4894565118  TIP3      4118            0.0000000000
     31070      4278  TIP3      H2            -25.7646403078      -15.2233944986      -28.6342862779  TIP3      4118            0.0000000000
     31071      4279  TIP3      OH2           -22.4721427717      -11.0164935904      -28.0104911031  TIP3      4119            0.0000000000
     31072      4279  TIP3      H1            -22.6472924897      -11.4781511010      -27.1560363044  TIP3      4119            0.0000000000
     31073      4279  TIP3      H2            -22.0086281637      -10.2379427794      -27.6617509844  TIP3      4119            0.0000000000
     31074      4280  TIP3      OH2           -21.0365868432       -6.0305615849      -41.4824688837  TIP3      4120            0.0000000000
     31075      4280  TIP3      H1            -20.4078164642       -6.6217323570      -41.9439838489  TIP3      4120            0.0000000000
     31076      4280  TIP3      H2            -20.4862647924       -5.2295225924      -41.3984714159  TIP3      4120            0.0000000000
     31077      4281  TIP3      OH2           -25.0508137033      -12.5213187700      -41.4346997545  TIP3      4121            0.0000000000
     31078      4281  TIP3      H1            -25.0213458957      -12.0194638959      -40.5873054802  TIP3      4121            0.0000000000
     31079      4281  TIP3      H2            -25.9805982864      -12.3309020708      -41.6677111367  TIP3      4121            0.0000000000
     31080      4282  TIP3      OH2           -29.1556651417      -10.1177386632      -30.7799964171  TIP3      4122            0.0000000000
     31081      4282  TIP3      H1            -29.8360632656       -9.8914318868      -30.1377841100  TIP3      4122            0.0000000000
     31082      4282  TIP3      H2            -29.1715884710       -9.2999407686      -31.3194549278  TIP3      4122            0.0000000000
     31083      4283  TIP3      OH2           -29.1428513271       -9.9291303310      -36.0362810936  TIP3      4123            0.0000000000
     31084      4283  TIP3      H1            -30.0625287697       -9.6273399911      -36.1652556666  TIP3      4123            0.0000000000
     31085      4283  TIP3      H2            -28.9191175478      -10.2735911069      -36.9302954491  TIP3      4123            0.0000000000
     31086      4284  TIP3      OH2           -23.2905048435       -8.8971135355      -36.8721509736  TIP3      4124            0.0000000000
     31087      4284  TIP3      H1            -23.9315654909       -8.3872911445      -37.4190556328  TIP3      4124            0.0000000000
     31088      4284  TIP3      H2            -23.1076491185       -9.6238179528      -37.4967036022  TIP3      4124            0.0000000000
     31089      4285  TIP3      OH2           -25.1576946436       -8.8896102038      -24.8065363288  TIP3      4125            0.0000000000
     31090      4285  TIP3      H1            -25.3202882031       -9.7174326787      -25.2877015944  TIP3      4125            0.0000000000
     31091      4285  TIP3      H2            -24.3869356241       -8.5459865682      -25.3057338368  TIP3      4125            0.0000000000
     31092      4286  TIP3      OH2           -22.8361576724       -9.7493865706      -34.1189635639  TIP3      4126            0.0000000000
     31093      4286  TIP3      H1            -23.3459963426       -9.0438194104      -34.5599715540  TIP3      4126            0.0000000000
     31094      4286  TIP3      H2            -22.9931141842      -10.4940582928      -34.7230657672  TIP3      4126            0.0000000000
     31095      4287  TIP3      OH2           -31.8657947016       -9.8520196174      -29.1147272631  TIP3      4127            0.0000000000
     31096      4287  TIP3      H1            -31.1638743579       -9.7395621035      -28.4521136666  TIP3      4127            0.0000000000
     31097      4287  TIP3      H2            -32.2086387890      -10.7511872552      -28.9425171887  TIP3      4127            0.0000000000
     31098      4288  TIP3      OH2           -27.9573123066      -11.8412992767      -41.7362626779  TIP3      4128            0.0000000000
     31099      4288  TIP3      H1            -28.6258362099      -12.1213075931      -41.0723860246  TIP3      4128            0.0000000000
     31100      4288  TIP3      H2            -28.4137863906      -11.2178845380      -42.3219971803  TIP3      4128            0.0000000000
     31101      4289  TIP3      OH2           -34.3319799837      -13.2035616396      -35.0798836212  TIP3      4129            0.0000000000
     31102      4289  TIP3      H1            -34.0069744668      -13.1472023897      -34.1568555856  TIP3      4129            0.0000000000
     31103      4289  TIP3      H2            -34.1400239913      -14.1237340294      -35.2885093805  TIP3      4129            0.0000000000
     31104      4290  TIP3      OH2           -33.8257811569      -11.9215721443      -39.5651039696  TIP3      4130            0.0000000000
     31105      4290  TIP3      H1            -33.1837592450      -11.7045786926      -40.2598013995  TIP3      4130            0.0000000000
     31106      4290  TIP3      H2            -34.5405311526      -12.3194914312      -40.0970699523  TIP3      4130            0.0000000000
     31107      4291  TIP3      OH2           -24.0574331840       -8.8808438742      -30.2391519822  TIP3      4131            0.0000000000
     31108      4291  TIP3      H1            -23.2470378212       -9.4106371553      -30.3791925325  TIP3      4131            0.0000000000
     31109      4291  TIP3      H2            -24.0151890067       -8.7307618384      -29.2706733767  TIP3      4131            0.0000000000
     31110      4292  TIP3      OH2           -26.6612932571      -12.1677640194      -34.5955855542  TIP3      4132            0.0000000000
     31111      4292  TIP3      H1            -27.5027779073      -12.1771395016      -34.1149932655  TIP3      4132            0.0000000000
     31112      4292  TIP3      H2            -26.0946636305      -12.8377689238      -34.1592227970  TIP3      4132            0.0000000000
     31113      4293  TIP3      OH2           -31.8566583556      -10.6282839087      -36.3507804899  TIP3      4133            0.0000000000
     31114      4293  TIP3      H1            -32.6589587725      -10.5854410242      -36.8922215639  TIP3      4133            0.0000000000
     31115      4293  TIP3      H2            -31.6658017463      -11.5912338680      -36.3303159803  TIP3      4133            0.0000000000
     31116      4294  TIP3      OH2           -28.5597607591      -10.6144861337      -38.5984764015  TIP3      4134            0.0000000000
     31117      4294  TIP3      H1            -27.5733257095      -10.5331954896      -38.6588778760  TIP3      4134            0.0000000000
     31118      4294  TIP3      H2            -28.8768020270       -9.9768840852      -39.2702533051  TIP3      4134            0.0000000000
     31119      4295  TIP3      OH2           -22.4147520560      -12.8119928831      -31.8069430052  TIP3      4135            0.0000000000
     31120      4295  TIP3      H1            -22.9198269900      -13.1521476477      -31.0457205355  TIP3      4135            0.0000000000
     31121      4295  TIP3      H2            -22.3612607735      -13.6032027254      -32.3645749738  TIP3      4135            0.0000000000
     31122      4296  TIP3      OH2           -29.7756655592       -8.9488012443      -40.5184697020  TIP3      4136            0.0000000000
     31123      4296  TIP3      H1            -30.3450569264       -9.3943961323      -41.1722523048  TIP3      4136            0.0000000000
     31124      4296  TIP3      H2            -28.9067174467       -8.8941447582      -40.9541576908  TIP3      4136            0.0000000000
     31125      4297  TIP3      OH2           -19.2108788541        2.3464160080      -24.8396532579  TIP3      4137            0.0000000000
     31126      4297  TIP3      H1            -18.9749378425        2.7375965974      -25.7105399757  TIP3      4137            0.0000000000
     31127      4297  TIP3      H2            -18.3568630606        2.5467158105      -24.3981665838  TIP3      4137            0.0000000000
     31128      4298  TIP3      OH2           -31.8198754924       -4.7902896366      -25.4272084013  TIP3      4138            0.0000000000
     31129      4298  TIP3      H1            -31.0728259782       -4.9571924309      -24.8143122026  TIP3      4138            0.0000000000
     31130      4298  TIP3      H2            -32.5979499271       -4.9296216486      -24.8499837769  TIP3      4138            0.0000000000
     31131      4299  TIP3      OH2           -25.6714029649       -9.3331291729      -33.1377062083  TIP3      4139            0.0000000000
     31132      4299  TIP3      H1            -25.3531986949      -10.0245580495      -33.7442195586  TIP3      4139            0.0000000000
     31133      4299  TIP3      H2            -25.7492863121       -9.7692558908      -32.2793118411  TIP3      4139            0.0000000000
     31134      4300  TIP3      OH2           -31.0302779416      -13.2642176995      -36.5455797231  TIP3      4140            0.0000000000
     31135      4300  TIP3      H1            -31.5124791968      -14.0489237235      -36.1777113968  TIP3      4140            0.0000000000
     31136      4300  TIP3      H2            -30.3341805442      -13.6938386848      -37.0509795733  TIP3      4140            0.0000000000
     31137      4301  TIP3      OH2           -26.7440818468      -11.1512303883      -30.2282008659  TIP3      4141            0.0000000000
     31138      4301  TIP3      H1            -27.5155514521      -10.5848518262      -30.4092107379  TIP3      4141            0.0000000000
     31139      4301  TIP3      H2            -26.2439721193      -10.6367183791      -29.5759350941  TIP3      4141            0.0000000000
     31140      4302  TIP3      OH2           -26.3399127354       -4.9990757649      -38.6150896181  TIP3      4142            0.0000000000
     31141      4302  TIP3      H1            -27.1495581529       -5.4853721276      -38.8856863753  TIP3      4142            0.0000000000
     31142      4302  TIP3      H2            -26.5973771062       -4.6906874022      -37.7144368636  TIP3      4142            0.0000000000
     31143      4303  TIP3      OH2           -18.8899016819       -5.6855500074      -29.9380219328  TIP3      4143            0.0000000000
     31144      4303  TIP3      H1            -18.4988910095       -5.0484408723      -30.5718178161  TIP3      4143            0.0000000000
     31145      4303  TIP3      H2            -19.7934679223       -5.8100766334      -30.2754538367  TIP3      4143            0.0000000000
     31146      4304  TIP3      OH2           -22.2545336343      -11.7009372771      -40.9209144747  TIP3      4144            0.0000000000
     31147      4304  TIP3      H1            -23.1458811309      -11.7305764675      -40.5283292539  TIP3      4144            0.0000000000
     31148      4304  TIP3      H2            -21.9153367434      -10.9587668861      -40.3725609478  TIP3      4144            0.0000000000
     31149      4305  TIP3      OH2           -25.2750408161       -4.7123599393      -27.5912449995  TIP3      4145            0.0000000000
     31150      4305  TIP3      H1            -25.4058275789       -5.6587855079      -27.3917292718  TIP3      4145            0.0000000000
     31151      4305  TIP3      H2            -26.0943603057       -4.5119527351      -28.0773265913  TIP3      4145            0.0000000000
     31152      4306  TIP3      OH2           -21.9641425131      -10.1771720547      -38.8393122227  TIP3      4146            0.0000000000
     31153      4306  TIP3      H1            -21.0927990446      -10.2769870229      -38.4014125365  TIP3      4146            0.0000000000
     31154      4306  TIP3      H2            -21.9559219178       -9.2284436740      -39.0727710084  TIP3      4146            0.0000000000
     31155      4307  TIP3      OH2           -30.8251203260       -5.3861867358      -32.9786249357  TIP3      4147            0.0000000000
     31156      4307  TIP3      H1            -30.5815213803       -5.4724637360      -33.9240369351  TIP3      4147            0.0000000000
     31157      4307  TIP3      H2            -31.0022761351       -6.3389143314      -32.8100936019  TIP3      4147            0.0000000000
     31158      4308  TIP3      OH2           -24.2346985152       -3.5794955819      -39.4472345983  TIP3      4148            0.0000000000
     31159      4308  TIP3      H1            -24.5941958805       -2.6760506258      -39.3185340805  TIP3      4148            0.0000000000
     31160      4308  TIP3      H2            -25.0637984425       -4.1174789874      -39.4551784409  TIP3      4148            0.0000000000
     31161      4309  TIP3      OH2           -34.2131428804       -7.8488707338      -27.5601534263  TIP3      4149            0.0000000000
     31162      4309  TIP3      H1            -33.7954548119       -7.9539360640      -26.6739056099  TIP3      4149            0.0000000000
     31163      4309  TIP3      H2            -33.9176974912       -8.6691111287      -27.9602914107  TIP3      4149            0.0000000000
     31164      4310  TIP3      OH2           -27.4373003702       -7.4714297991      -25.6648939570  TIP3      4150            0.0000000000
     31165      4310  TIP3      H1            -27.7342960441       -7.7173051571      -26.5613591372  TIP3      4150            0.0000000000
     31166      4310  TIP3      H2            -26.6097429991       -7.9952879895      -25.5665973295  TIP3      4150            0.0000000000
     31167      4311  TIP3      OH2           -22.4599759814       -1.9223536634      -27.5565341368  TIP3      4151            0.0000000000
     31168      4311  TIP3      H1            -23.4145668553       -1.8414254431      -27.7255289467  TIP3      4151            0.0000000000
     31169      4311  TIP3      H2            -22.3707318826       -1.2263234214      -26.8819486684  TIP3      4151            0.0000000000
     31170      4312  TIP3      OH2           -16.5311332445       -9.8947447913      -40.2757968148  TIP3      4152            0.0000000000
     31171      4312  TIP3      H1            -17.3522124175       -9.4577318792      -40.5559419763  TIP3      4152            0.0000000000
     31172      4312  TIP3      H2            -16.5759023743       -9.7783038628      -39.3045278297  TIP3      4152            0.0000000000
     31173      4313  TIP3      OH2           -16.5229422724       -3.8886112972      -26.6002479121  TIP3      4153            0.0000000000
     31174      4313  TIP3      H1            -17.4327241340       -3.9349920425      -26.9685469248  TIP3      4153            0.0000000000
     31175      4313  TIP3      H2            -15.9903544465       -4.2324125251      -27.3604389363  TIP3      4153            0.0000000000
     31176      4314  TIP3      OH2           -18.9618593734       -1.1555465068      -39.1857017742  TIP3      4154            0.0000000000
     31177      4314  TIP3      H1            -18.9158603164       -1.9606893574      -38.6553468909  TIP3      4154            0.0000000000
     31178      4314  TIP3      H2            -18.3819289368       -1.3531052058      -39.9609021369  TIP3      4154            0.0000000000
     31179      4315  TIP3      OH2           -21.3347648447       -6.2382181696      -31.8616318785  TIP3      4155            0.0000000000
     31180      4315  TIP3      H1            -22.2398820962       -6.5143875550      -32.0990824144  TIP3      4155            0.0000000000
     31181      4315  TIP3      H2            -20.8111763449       -6.9491695160      -32.2822316745  TIP3      4155            0.0000000000
     31182      4316  TIP3      OH2           -28.8067909055       -2.2305703256      -35.1616725399  TIP3      4156            0.0000000000
     31183      4316  TIP3      H1            -28.6279672935       -1.3076564410      -35.4323041520  TIP3      4156            0.0000000000
     31184      4316  TIP3      H2            -29.5889195365       -2.3915424802      -35.7186045154  TIP3      4156            0.0000000000
     31185      4317  TIP3      OH2           -32.9410891323       -7.3681827278      -40.6559627705  TIP3      4157            0.0000000000
     31186      4317  TIP3      H1            -32.1914125977       -6.9448115248      -40.1828159829  TIP3      4157            0.0000000000
     31187      4317  TIP3      H2            -33.0079845812       -6.8130841807      -41.4478874976  TIP3      4157            0.0000000000
     31188      4318  TIP3      OH2           -27.5227485100       -4.2049171262      -36.3167435988  TIP3      4158            0.0000000000
     31189      4318  TIP3      H1            -27.9616473878       -3.4242171325      -35.9290242646  TIP3      4158            0.0000000000
     31190      4318  TIP3      H2            -27.7037921553       -4.9043706971      -35.6582503852  TIP3      4158            0.0000000000
     31191      4319  TIP3      OH2           -26.9729696321        0.3665373116      -29.6150173431  TIP3      4159            0.0000000000
     31192      4319  TIP3      H1            -26.2734922668        0.9773101611      -29.9202152505  TIP3      4159            0.0000000000
     31193      4319  TIP3      H2            -26.5539993033       -0.5106075043      -29.7477769534  TIP3      4159            0.0000000000
     31194      4320  TIP3      OH2           -28.9197747278        0.0580228046      -36.5679433720  TIP3      4160            0.0000000000
     31195      4320  TIP3      H1            -29.6415442144        0.1948528312      -37.2246839242  TIP3      4160            0.0000000000
     31196      4320  TIP3      H2            -29.0140025125        0.8665660001      -36.0236701498  TIP3      4160            0.0000000000
     31197      4321  TIP3      OH2           -23.0700476990       -4.6484359442      -29.8886495370  TIP3      4161            0.0000000000
     31198      4321  TIP3      H1            -23.7448978991       -4.1801255428      -29.3634744263  TIP3      4161            0.0000000000
     31199      4321  TIP3      H2            -23.0815539254       -5.5438654953      -29.5049658901  TIP3      4161            0.0000000000
     31200      4322  TIP3      OH2           -21.2223294901       -3.0071469515      -40.7333407093  TIP3      4162            0.0000000000
     31201      4322  TIP3      H1            -21.0411165337       -3.3401589920      -39.8293664786  TIP3      4162            0.0000000000
     31202      4322  TIP3      H2            -22.0563347407       -3.4667124816      -40.9417391714  TIP3      4162            0.0000000000
     31203      4323  TIP3      OH2           -20.5808279386        0.3144345562      -27.8546379494  TIP3      4163            0.0000000000
     31204      4323  TIP3      H1            -21.4503844670       -0.0331791819      -28.1422047027  TIP3      4163            0.0000000000
     31205      4323  TIP3      H2            -20.3898660006        0.9528289766      -28.5620340708  TIP3      4163            0.0000000000
     31206      4324  TIP3      OH2           -16.6727468610        1.1450028078      -40.5553157176  TIP3      4164            0.0000000000
     31207      4324  TIP3      H1            -16.0722569601        1.7380123550      -41.0230771080  TIP3      4164            0.0000000000
     31208      4324  TIP3      H2            -17.3318524377        1.7911778952      -40.2013639556  TIP3      4164            0.0000000000
     31209      4325  TIP3      OH2           -32.3723185667      -12.4629585482      -28.0870187072  TIP3      4165            0.0000000000
     31210      4325  TIP3      H1            -32.6931053433      -12.2744325292      -27.1857654220  TIP3      4165            0.0000000000
     31211      4325  TIP3      H2            -32.7267105239      -13.3600160497      -28.2328239241  TIP3      4165            0.0000000000
     31212      4326  TIP3      OH2           -20.4345693018       -4.3818464535      -38.5123980406  TIP3      4166            0.0000000000
     31213      4326  TIP3      H1            -20.6430666675       -5.2445869130      -38.0783371898  TIP3      4166            0.0000000000
     31214      4326  TIP3      H2            -19.4501214440       -4.3995197998      -38.4226759735  TIP3      4166            0.0000000000
     31215      4327  TIP3      OH2           -32.9562469207       -0.8970098223      -29.9227368159  TIP3      4167            0.0000000000
     31216      4327  TIP3      H1            -32.4991869154       -1.7143992015      -29.6616054170  TIP3      4167            0.0000000000
     31217      4327  TIP3      H2            -33.0722458178       -0.5161842006      -29.0452187579  TIP3      4167            0.0000000000
     31218      4328  TIP3      OH2           -28.2351664681       -2.5683590783      -40.1747596983  TIP3      4168            0.0000000000
     31219      4328  TIP3      H1            -27.9525778423       -3.0208017274      -39.3640604563  TIP3      4168            0.0000000000
     31220      4328  TIP3      H2            -28.1658403322       -1.6240532555      -39.9391130506  TIP3      4168            0.0000000000
     31221      4329  TIP3      OH2           -31.8551245399       -5.4606658600      -39.1345044085  TIP3      4169            0.0000000000
     31222      4329  TIP3      H1            -32.7424337992       -5.0686817417      -38.9630539847  TIP3      4169            0.0000000000
     31223      4329  TIP3      H2            -31.5217014834       -4.7776337578      -39.7494946670  TIP3      4169            0.0000000000
     31224      4330  TIP3      OH2           -24.1365491301      -12.8746827877      -29.2273700012  TIP3      4170            0.0000000000
     31225      4330  TIP3      H1            -23.6221714644      -12.3270643204      -28.6023780412  TIP3      4170            0.0000000000
     31226      4330  TIP3      H2            -23.9953039539      -13.7947567132      -28.9331220396  TIP3      4170            0.0000000000
     31227      4331  TIP3      OH2           -22.6256065070      -14.0022961900      -38.1031511313  TIP3      4171            0.0000000000
     31228      4331  TIP3      H1            -22.8664357702      -13.1511011636      -38.4928239081  TIP3      4171            0.0000000000
     31229      4331  TIP3      H2            -22.6040924585      -13.7627639845      -37.1582322004  TIP3      4171            0.0000000000
     31230      4332  TIP3      OH2           -25.2943288042       -1.0868860112      -39.3421944522  TIP3      4172            0.0000000000
     31231      4332  TIP3      H1            -26.1108524227       -0.8629624989      -39.8196171428  TIP3      4172            0.0000000000
     31232      4332  TIP3      H2            -24.6320823175       -0.6697109001      -39.9420692777  TIP3      4172            0.0000000000
     31233      4333  TIP3      OH2           -25.8870952741       -9.9755592591      -35.9685806692  TIP3      4173            0.0000000000
     31234      4333  TIP3      H1            -25.7651368134      -10.1641137855      -36.9304369712  TIP3      4173            0.0000000000
     31235      4333  TIP3      H2            -26.3867115027      -10.7498797280      -35.6312198895  TIP3      4173            0.0000000000
     31236      4334  TIP3      OH2           -25.6775447791      -10.1078583245      -27.8121525784  TIP3      4174            0.0000000000
     31237      4334  TIP3      H1            -25.0782389773       -9.3316050566      -27.7228056082  TIP3      4174            0.0000000000
     31238      4334  TIP3      H2            -25.0780922781      -10.8729332797      -27.7844916181  TIP3      4174            0.0000000000
     31239      4335  TIP3      OH2           -25.4560802681      -14.4954836243      -36.6984554448  TIP3      4175            0.0000000000
     31240      4335  TIP3      H1            -25.4197574229      -13.5745804379      -36.3970962906  TIP3      4175            0.0000000000
     31241      4335  TIP3      H2            -24.5086440671      -14.7704885335      -36.6326944533  TIP3      4175            0.0000000000
     31242      4336  TIP3      OH2           -27.9119231153        0.2912352632      -39.7265360248  TIP3      4176            0.0000000000
     31243      4336  TIP3      H1            -27.6332678008        1.1014700360      -40.2001380855  TIP3      4176            0.0000000000
     31244      4336  TIP3      H2            -28.9004220248        0.3635952084      -39.6920804606  TIP3      4176            0.0000000000
     31245      4337  TIP3      OH2           -29.4385910809      -13.1021384340      -39.6564117758  TIP3      4177            0.0000000000
     31246      4337  TIP3      H1            -29.4459921393      -12.3231175658      -39.0580439443  TIP3      4177            0.0000000000
     31247      4337  TIP3      H2            -28.5922295839      -13.4908773165      -39.3752141406  TIP3      4177            0.0000000000
     31248      4338  TIP3      OH2           -19.7471925645      -12.6934761611      -27.5081291557  TIP3      4178            0.0000000000
     31249      4338  TIP3      H1            -20.4718728094      -12.0883400640      -27.7436776351  TIP3      4178            0.0000000000
     31250      4338  TIP3      H2            -18.9676202958      -12.1876865886      -27.7888945814  TIP3      4178            0.0000000000
     31251      4339  TIP3      OH2           -20.5130575992       -8.1224884055      -33.8130870384  TIP3      4179            0.0000000000
     31252      4339  TIP3      H1            -21.1712276266       -8.8360227775      -33.9763158864  TIP3      4179            0.0000000000
     31253      4339  TIP3      H2            -19.8619794197       -8.5631935847      -33.1986874956  TIP3      4179            0.0000000000
     31254      4340  TIP3      OH2           -31.7730962465       -3.1964371306      -40.4958655036  TIP3      4180            0.0000000000
     31255      4340  TIP3      H1            -31.3509363185       -2.3485106903      -40.2404652864  TIP3      4180            0.0000000000
     31256      4340  TIP3      H2            -31.1469158044       -3.4739009751      -41.1985788089  TIP3      4180            0.0000000000
     31257      4341  TIP3      OH2           -32.2684264710      -10.1012704445      -41.5076045741  TIP3      4181            0.0000000000
     31258      4341  TIP3      H1            -32.1934726365       -9.1341354275      -41.4492295678  TIP3      4181            0.0000000000
     31259      4341  TIP3      H2            -33.2271241768      -10.1594313783      -41.3831894651  TIP3      4181            0.0000000000
     31260      4342  TIP3      OH2           -19.4107926747        0.1844681940      -31.9563694659  TIP3      4182            0.0000000000
     31261      4342  TIP3      H1            -19.2639477353        0.9766661111      -32.5107597335  TIP3      4182            0.0000000000
     31262      4342  TIP3      H2            -19.0480432350        0.5363192500      -31.1228312479  TIP3      4182            0.0000000000
     31263      4343  TIP3      OH2           -31.7142291790      -15.1868544095      -32.7752909381  TIP3      4183            0.0000000000
     31264      4343  TIP3      H1            -31.9911045234      -15.6000506900      -33.6336566175  TIP3      4183            0.0000000000
     31265      4343  TIP3      H2            -32.0689345351      -15.8423518168      -32.1376000579  TIP3      4183            0.0000000000
     31266      4344  TIP3      OH2           -32.9306406593       -1.7022571022      -37.0913763841  TIP3      4184            0.0000000000
     31267      4344  TIP3      H1            -33.5871059289       -1.0440570263      -37.4126536363  TIP3      4184            0.0000000000
     31268      4344  TIP3      H2            -32.2022169210       -1.4537668456      -37.6938602313  TIP3      4184            0.0000000000
     31269      4345  TIP3      OH2           -33.8395458322        1.4447221877      -24.5296368627  TIP3      4185            0.0000000000
     31270      4345  TIP3      H1            -33.5756175373        0.5482914283      -24.8171799372  TIP3      4185            0.0000000000
     31271      4345  TIP3      H2            -34.6229424471        1.5777138843      -25.1122552594  TIP3      4185            0.0000000000
     31272      4346  TIP3      OH2           -24.2655019877       -0.2584782603      -41.6556936981  TIP3      4186            0.0000000000
     31273      4346  TIP3      H1            -24.0877052403       -1.1847285212      -41.9301165597  TIP3      4186            0.0000000000
     31274      4346  TIP3      H2            -23.4505552138        0.1862700792      -41.9531220653  TIP3      4186            0.0000000000
     31275      4347  TIP3      OH2           -22.6921302991       -0.7995264305      -25.0396598059  TIP3      4187            0.0000000000
     31276      4347  TIP3      H1            -22.9726316993       -1.5088313948      -24.4181818316  TIP3      4187            0.0000000000
     31277      4347  TIP3      H2            -21.8496207396       -0.6011868913      -24.5848575029  TIP3      4187            0.0000000000
     31278      4348  TIP3      OH2           -20.1091488987       -0.4169009475      -42.2294998560  TIP3      4188            0.0000000000
     31279      4348  TIP3      H1            -20.4526304957       -1.1633737600      -41.6939057627  TIP3      4188            0.0000000000
     31280      4348  TIP3      H2            -19.1777920849       -0.6832634927      -42.2676297160  TIP3      4188            0.0000000000
     31281      4349  TIP3      OH2           -34.4133925216       -4.8985421180      -24.4660929114  TIP3      4189            0.0000000000
     31282      4349  TIP3      H1            -34.5241923427       -5.7760628418      -24.8592610410  TIP3      4189            0.0000000000
     31283      4349  TIP3      H2            -35.2817640822       -4.4830019684      -24.6335236604  TIP3      4189            0.0000000000
     31284      4350  TIP3      OH2           -29.6227303155       -4.1524684921      -42.0057705518  TIP3      4190            0.0000000000
     31285      4350  TIP3      H1            -28.9334208575       -3.7856388679      -41.4105708950  TIP3      4190            0.0000000000
     31286      4350  TIP3      H2            -29.2345155233       -5.0198409643      -42.2957958591  TIP3      4190            0.0000000000
     31287      4351  TIP3      OH2           -27.2590439927       -4.7182243469      -25.1358900123  TIP3      4191            0.0000000000
     31288      4351  TIP3      H1            -27.4813651128       -4.2541461754      -25.9808186063  TIP3      4191            0.0000000000
     31289      4351  TIP3      H2            -27.3520141261       -5.6672231601      -25.3792125629  TIP3      4191            0.0000000000
     31290      4352  TIP3      OH2           -21.6209290271       -4.8828321199      -27.5100692152  TIP3      4192            0.0000000000
     31291      4352  TIP3      H1            -20.6796935213       -4.6057535542      -27.4819776732  TIP3      4192            0.0000000000
     31292      4352  TIP3      H2            -21.9128048392       -4.3915474075      -28.3032940028  TIP3      4192            0.0000000000
     31293      4353  TIP3      OH2           -33.0374998199       -8.1442876998      -25.2004046146  TIP3      4193            0.0000000000
     31294      4353  TIP3      H1            -32.2778067334       -8.7553467399      -25.0379897507  TIP3      4193            0.0000000000
     31295      4353  TIP3      H2            -33.1256774422       -7.7044742944      -24.3293192806  TIP3      4193            0.0000000000
     31296      4354  TIP3      OH2           -28.4778068314       -6.1801214754      -39.7561690091  TIP3      4194            0.0000000000
     31297      4354  TIP3      H1            -29.0089515293       -6.8842769996      -39.3368691386  TIP3      4194            0.0000000000
     31298      4354  TIP3      H2            -28.2812259526       -6.5995460098      -40.6166371724  TIP3      4194            0.0000000000
     31299      4355  TIP3      OH2           -29.4357830552       -8.8948358729      -28.1537679546  TIP3      4195            0.0000000000
     31300      4355  TIP3      H1            -30.0522341982       -8.1692081000      -27.9128816587  TIP3      4195            0.0000000000
     31301      4355  TIP3      H2            -28.7270761333       -8.3806257035      -28.5809698822  TIP3      4195            0.0000000000
     31302      4356  TIP3      OH2           -27.0904637933       -8.3635379488      -41.4490312831  TIP3      4196            0.0000000000
     31303      4356  TIP3      H1            -26.8943993071       -8.4363245399      -42.4040255674  TIP3      4196            0.0000000000
     31304      4356  TIP3      H2            -26.2471972825       -8.6013159536      -41.0242850494  TIP3      4196            0.0000000000
     31305      4357  TIP3      OH2           -23.7096197147       -5.8432008840      -24.0765759748  TIP3      4197            0.0000000000
     31306      4357  TIP3      H1            -22.9492705178       -5.9159657049      -23.4640416434  TIP3      4197            0.0000000000
     31307      4357  TIP3      H2            -24.1121909770       -6.7211228818      -24.0637485875  TIP3      4197            0.0000000000
     31308      4358  TIP3      OH2           -18.5132543527       -4.5044931411       42.6106100124  TIP3      4198            0.0000000000
     31309      4358  TIP3      H1            -18.1743940598       -5.4154034621       42.7101095420  TIP3      4198            0.0000000000
     31310      4358  TIP3      H2            -17.7907200997       -4.0105887827       42.2022687498  TIP3      4198            0.0000000000
     31311      4359  TIP3      OH2           -28.3509576453      -11.2639590880      -26.8365669418  TIP3      4199            0.0000000000
     31312      4359  TIP3      H1            -28.2324970264      -11.8992026301      -27.5710680718  TIP3      4199            0.0000000000
     31313      4359  TIP3      H2            -28.3895364333      -10.4122850422      -27.3171520899  TIP3      4199            0.0000000000
     31314      4360  TIP3      OH2           -28.1640012378      -13.0841711713      -29.0293697501  TIP3      4200            0.0000000000
     31315      4360  TIP3      H1            -27.5709712428      -12.6741468474      -29.7000996478  TIP3      4200            0.0000000000
     31316      4360  TIP3      H2            -29.0514988798      -12.9384708646      -29.4274150053  TIP3      4200            0.0000000000
     31317      4361  TIP3      OH2           -27.0241751622       -7.2337977923      -28.7163716950  TIP3      4201            0.0000000000
     31318      4361  TIP3      H1            -26.1591124904       -7.4829856130      -29.0734394728  TIP3      4201            0.0000000000
     31319      4361  TIP3      H2            -27.3952018656       -6.6421597150      -29.4106743166  TIP3      4201            0.0000000000
     31320      4362  TIP3      OH2           -22.1720567287       -9.9852433782      -23.7399812342  TIP3      4202            0.0000000000
     31321      4362  TIP3      H1            -21.8873162634      -10.7339203347      -24.2929191250  TIP3      4202            0.0000000000
     31322      4362  TIP3      H2            -21.7035648322       -9.2353401750      -24.1393906824  TIP3      4202            0.0000000000
     31323      4363  TIP3      OH2           -20.8643509954       -6.6621626296      -25.5067892496  TIP3      4203            0.0000000000
     31324      4363  TIP3      H1            -21.2905431828       -6.2737003596      -26.2922024272  TIP3      4203            0.0000000000
     31325      4363  TIP3      H2            -19.9338914060       -6.6083398392      -25.7727967526  TIP3      4203            0.0000000000
     31326      4364  TIP3      OH2           -30.9663409601       -9.8604401758      -25.0287022159  TIP3      4204            0.0000000000
     31327      4364  TIP3      H1            -31.2148971386      -10.5606284223      -24.3915918566  TIP3      4204            0.0000000000
     31328      4364  TIP3      H2            -30.3951914272      -10.3311707540      -25.6520517952  TIP3      4204            0.0000000000
     31329      4365  TIP3      OH2           -27.4029343118      -15.5760607095      -28.5884529366  TIP3      4205            0.0000000000
     31330      4365  TIP3      H1            -27.6688736181      -14.6395796701      -28.7676587727  TIP3      4205            0.0000000000
     31331      4365  TIP3      H2            -28.0278000792      -16.0340938786      -29.1932709971  TIP3      4205            0.0000000000
     31332      4366  TIP3      OH2           -26.0506659054      -11.6923905802      -25.3224359174  TIP3      4206            0.0000000000
     31333      4366  TIP3      H1            -26.3437530197      -11.8241906335      -24.4208886789  TIP3      4206            0.0000000000
     31334      4366  TIP3      H2            -26.8623351414      -11.4453738503      -25.8193428746  TIP3      4206            0.0000000000
     31335      4367  TIP3      OH2           -23.4519133193      -12.0679618248      -25.7456254453  TIP3      4207            0.0000000000
     31336      4367  TIP3      H1            -24.3958274828      -12.1633461713      -25.4575806693  TIP3      4207            0.0000000000
     31337      4367  TIP3      H2            -22.9655288185      -12.5709935056      -25.0642225174  TIP3      4207            0.0000000000
     31338      4368  TIP3      OH2           -21.8354606205      -13.3475807311      -23.7244883527  TIP3      4208            0.0000000000
     31339      4368  TIP3      H1            -21.9980092485      -14.2750116682      -24.0144811981  TIP3      4208            0.0000000000
     31340      4368  TIP3      H2            -21.9627913217      -13.4034379786      -22.7667755978  TIP3      4208            0.0000000000
     31341      4369  TIP3      OH2           -31.9346698897      -12.3949066743      -24.3728424214  TIP3      4209            0.0000000000
     31342      4369  TIP3      H1            -31.6316237414      -13.2286434047      -24.7537282083  TIP3      4209            0.0000000000
     31343      4369  TIP3      H2            -32.0974034154      -12.6280578448      -23.4266249044  TIP3      4209            0.0000000000
     31344      4370  TIP3      OH2           -27.2012413943      -15.6103176034      -25.8079679921  TIP3      4210            0.0000000000
     31345      4370  TIP3      H1            -26.5391554823      -16.3310468824      -25.7712571629  TIP3      4210            0.0000000000
     31346      4370  TIP3      H2            -27.3722816228      -15.5454990318      -26.7699137153  TIP3      4210            0.0000000000
     31347      4371  TIP3      OH2           -27.4266735270      -14.6799282692      -23.3085992346  TIP3      4211            0.0000000000
     31348      4371  TIP3      H1            -27.3945039423      -15.2075837452      -24.1426595903  TIP3      4211            0.0000000000
     31349      4371  TIP3      H2            -28.0531106713      -13.9791111777      -23.5567406990  TIP3      4211            0.0000000000
     31350      4372  TIP3      OH2           -27.4100209950        3.2301957009      -41.1397860808  TIP3      4212            0.0000000000
     31351      4372  TIP3      H1            -26.6210396114        3.4602040595      -40.6094120079  TIP3      4212            0.0000000000
     31352      4372  TIP3      H2            -27.9865256298        3.9805086492      -40.9588034744  TIP3      4212            0.0000000000
     31353      4373  TIP3      OH2           -34.2837198319       -4.1375398036      -41.3403437285  TIP3      4213            0.0000000000
     31354      4373  TIP3      H1            -33.3614940061       -3.7996855085      -41.2853162233  TIP3      4213            0.0000000000
     31355      4373  TIP3      H2            -34.6839879599       -3.5170972823      -41.9758121774  TIP3      4213            0.0000000000
     31356      4374  TIP3      OH2           -34.1550799775        2.1589847036      -36.5124884158  TIP3      4214            0.0000000000
     31357      4374  TIP3      H1            -34.9710733076        1.9321861157      -37.0000387778  TIP3      4214            0.0000000000
     31358      4374  TIP3      H2            -34.5248897329        2.4341475491      -35.6540329234  TIP3      4214            0.0000000000
     31359      4375  TIP3      OH2           -34.0796891377        0.3839174038      -34.0823449740  TIP3      4215            0.0000000000
     31360      4375  TIP3      H1            -34.0179548868       -0.5493817750      -33.7570365219  TIP3      4215            0.0000000000
     31361      4375  TIP3      H2            -33.4199473062        0.8124394314      -33.5181106062  TIP3      4215            0.0000000000
     31362      4376  TIP3      OH2           -16.2858577770        1.2383996456      -31.9637645011  TIP3      4216            0.0000000000
     31363      4376  TIP3      H1            -17.0411522430        1.5208926039      -31.4227030221  TIP3      4216            0.0000000000
     31364      4376  TIP3      H2            -15.5558267069        1.7962297361      -31.6486452073  TIP3      4216            0.0000000000
     31365      4377  TIP3      OH2           -16.2611847174        0.8567302710      -28.3293737702  TIP3      4217            0.0000000000
     31366      4377  TIP3      H1            -17.0308045409        0.8617541178      -28.9192860195  TIP3      4217            0.0000000000
     31367      4377  TIP3      H2            -16.5417044908        0.1909571743      -27.6652535264  TIP3      4217            0.0000000000
     31368      4378  TIP3      OH2           -18.7869293673       -3.5208750885      -23.6508253330  TIP3      4218            0.0000000000
     31369      4378  TIP3      H1            -19.5725740112       -3.7864256954      -23.1363193712  TIP3      4218            0.0000000000
     31370      4378  TIP3      H2            -18.6553010968       -2.6044469512      -23.3682416409  TIP3      4218            0.0000000000
     31371      4379  TIP3      OH2           -17.7717800414       -4.6659484227      -38.1051511664  TIP3      4219            0.0000000000
     31372      4379  TIP3      H1            -16.8398898824       -4.3610065036      -38.1606312157  TIP3      4219            0.0000000000
     31373      4379  TIP3      H2            -17.6520352685       -5.4607825639      -37.5307700449  TIP3      4219            0.0000000000
     31374      4380  TIP3      OH2           -17.2007859837       -6.5576650231      -36.1750905716  TIP3      4220            0.0000000000
     31375      4380  TIP3      H1            -17.8860592376       -7.2526954539      -36.0220051793  TIP3      4220            0.0000000000
     31376      4380  TIP3      H2            -16.5782172591       -6.7636015951      -35.4404194044  TIP3      4220            0.0000000000
     31377      4381  TIP3      OH2           -17.3637169805       -3.9874634929      -31.6394154633  TIP3      4221            0.0000000000
     31378      4381  TIP3      H1            -16.6125538604       -4.5876303165      -31.8517128383  TIP3      4221            0.0000000000
     31379      4381  TIP3      H2            -16.8781300242       -3.1440152039      -31.6271661338  TIP3      4221            0.0000000000
     31380      4382  TIP3      OH2           -18.5356959326       -1.6119380426      -29.2677312978  TIP3      4222            0.0000000000
     31381      4382  TIP3      H1            -18.9957558719       -0.8798329990      -28.8166078391  TIP3      4222            0.0000000000
     31382      4382  TIP3      H2            -18.9611340255       -1.6648936697      -30.1412051295  TIP3      4222            0.0000000000
     31383      4383  TIP3      OH2           -16.7824730424       -6.8935805242      -39.4819799589  TIP3      4223            0.0000000000
     31384      4383  TIP3      H1            -17.1794434913       -7.1741832448      -40.3274086053  TIP3      4223            0.0000000000
     31385      4383  TIP3      H2            -17.3340577445       -6.1365547016      -39.2497038503  TIP3      4223            0.0000000000
     31386      4384  TIP3      OH2           -19.3158488935      -10.3922726125      -41.4963978781  TIP3      4224            0.0000000000
     31387      4384  TIP3      H1            -19.0471749279       -9.4630884239      -41.6530420328  TIP3      4224            0.0000000000
     31388      4384  TIP3      H2            -18.4854985291      -10.8460153647      -41.7107156535  TIP3      4224            0.0000000000
     31389      4385  TIP3      OH2           -19.0320145767       -8.3851345395      -35.9302351989  TIP3      4225            0.0000000000
     31390      4385  TIP3      H1            -18.9057768066       -9.3487958152      -36.0179891925  TIP3      4225            0.0000000000
     31391      4385  TIP3      H2            -19.4378771632       -8.3520722931      -35.0342207354  TIP3      4225            0.0000000000
     31392      4386  TIP3      OH2           -34.2507667826       -7.0524372030      -31.5684829276  TIP3      4226            0.0000000000
     31393      4386  TIP3      H1            -34.3863176168       -7.2650487485      -32.5282012675  TIP3      4226            0.0000000000
     31394      4386  TIP3      H2            -33.2819085328       -7.0442496904      -31.5155162840  TIP3      4226            0.0000000000
     31395      4387  TIP3      OH2           -18.0849523514       -6.4043322349      -26.1585768206  TIP3      4227            0.0000000000
     31396      4387  TIP3      H1            -18.0405824358       -7.1952787161      -26.7593411715  TIP3      4227            0.0000000000
     31397      4387  TIP3      H2            -17.5021955970       -5.7692065144      -26.5991098727  TIP3      4227            0.0000000000
     31398      4388  TIP3      OH2           -16.3242821262       -8.8207380448      -24.5152207854  TIP3      4228            0.0000000000
     31399      4388  TIP3      H1            -17.0407347701       -8.1979524359      -24.3220894526  TIP3      4228            0.0000000000
     31400      4388  TIP3      H2            -16.5805951583       -9.0743559646      -25.4329985051  TIP3      4228            0.0000000000
     31401      4389  TIP3      OH2           -19.2898780973      -12.8694122612      -42.7696362010  TIP3      4229            0.0000000000
     31402      4389  TIP3      H1            -18.5919332327      -12.9418931094      -42.0887514295  TIP3      4229            0.0000000000
     31403      4389  TIP3      H2            -19.9947070100      -12.4050118083      -42.2883066295  TIP3      4229            0.0000000000
     31404      4390  TIP3      OH2           -19.8212834574      -10.9409853835      -37.1948477302  TIP3      4230            0.0000000000
     31405      4390  TIP3      H1            -19.9080343934      -11.9243421325      -37.0989180335  TIP3      4230            0.0000000000
     31406      4390  TIP3      H2            -18.8399901876      -10.9187927176      -37.2364384915  TIP3      4230            0.0000000000
     31407      4391  TIP3      OH2           -18.7136236352       -9.1561860845      -32.1529917420  TIP3      4231            0.0000000000
     31408      4391  TIP3      H1            -17.8509549919       -9.6211254087      -32.2272424009  TIP3      4231            0.0000000000
     31409      4391  TIP3      H2            -18.9982364191       -9.5429965448      -31.2925536482  TIP3      4231            0.0000000000
     31410      4392  TIP3      OH2           -19.1917590787       -9.9268668913      -29.6298734050  TIP3      4232            0.0000000000
     31411      4392  TIP3      H1            -19.9464191155       -9.3954034985      -29.3199540748  TIP3      4232            0.0000000000
     31412      4392  TIP3      H2            -18.4921288274       -9.4271729983      -29.1607878924  TIP3      4232            0.0000000000
     31413      4393  TIP3      OH2           -34.0336294457      -11.0177838925      -25.5443282118  TIP3      4233            0.0000000000
     31414      4393  TIP3      H1            -33.1562070559      -11.2818521074      -25.1942646396  TIP3      4233            0.0000000000
     31415      4393  TIP3      H2            -34.5697986889      -11.7649308812      -25.2247270689  TIP3      4233            0.0000000000
     31416      4394  TIP3      OH2           -15.6267005420      -15.3924875571      -24.1442754936  TIP3      4234            0.0000000000
     31417      4394  TIP3      H1            -15.7812501578      -15.9766167998      -24.9011320051  TIP3      4234            0.0000000000
     31418      4394  TIP3      H2            -16.3415396135      -14.7298391893      -24.3034451401  TIP3      4234            0.0000000000
     31419      4395  TIP3      OH2           -19.5520265820      -13.5784466208      -37.1280931459  TIP3      4235            0.0000000000
     31420      4395  TIP3      H1            -18.8398648090      -13.8270642824      -36.5165353879  TIP3      4235            0.0000000000
     31421      4395  TIP3      H2            -19.5094387946      -14.2752174157      -37.8001338927  TIP3      4235            0.0000000000
     31422      4396  TIP3      OH2           -33.3386754752      -13.0352496873      -32.5687764727  TIP3      4236            0.0000000000
     31423      4396  TIP3      H1            -32.6132039455      -13.6807504020      -32.5929527772  TIP3      4236            0.0000000000
     31424      4396  TIP3      H2            -32.8635458619      -12.1966354359      -32.4489859919  TIP3      4236            0.0000000000
     31425      4397  TIP3      OH2           -34.4198780716       -9.7417332459      -31.3352668476  TIP3      4237            0.0000000000
     31426      4397  TIP3      H1            -34.1899889449      -10.2189782049      -32.1481011018  TIP3      4237            0.0000000000
     31427      4397  TIP3      H2            -33.8806416364       -8.9412113235      -31.4031768132  TIP3      4237            0.0000000000
     31428      4398  TIP3      OH2           -17.7925859072      -13.9880838506      -25.2319018448  TIP3      4238            0.0000000000
     31429      4398  TIP3      H1            -18.2788130526      -13.1690122086      -25.0549572086  TIP3      4238            0.0000000000
     31430      4398  TIP3      H2            -17.3887881281      -13.7448769981      -26.0777106611  TIP3      4238            0.0000000000
     31431      4399  TIP3      OH2           -17.2876773941      -13.4788629699      -40.9456269536  TIP3      4239            0.0000000000
     31432      4399  TIP3      H1            -16.5730057303      -13.2010490947      -41.5535970143  TIP3      4239            0.0000000000
     31433      4399  TIP3      H2            -17.3347535060      -12.7207006242      -40.3414112077  TIP3      4239            0.0000000000
     31434      4400  TIP3      OH2           -34.6367593449      -14.0070570081      -37.8440892964  TIP3      4240            0.0000000000
     31435      4400  TIP3      H1            -35.4268475923      -13.4615631649      -37.6643172191  TIP3      4240            0.0000000000
     31436      4400  TIP3      H2            -34.0687546381      -13.3718656002      -38.3080346321  TIP3      4240            0.0000000000
     31437      4401  TIP3      OH2           -19.7296658964        1.2530447137      -35.6449736473  TIP3      4241            0.0000000000
     31438      4401  TIP3      H1            -19.0865466334        1.2257179081      -36.3751860566  TIP3      4241            0.0000000000
     31439      4401  TIP3      H2            -19.4425583819        1.9853125161      -35.0882619498  TIP3      4241            0.0000000000
     31440      4402  TIP3      OH2           -34.3408569828      -15.2840157742      -29.0508588606  TIP3      4242            0.0000000000
     31441      4402  TIP3      H1            -35.1534170591      -15.7115890563      -28.7380981798  TIP3      4242            0.0000000000
     31442      4402  TIP3      H2            -34.7228779130      -14.8150311929      -29.8203611706  TIP3      4242            0.0000000000
     31443      4403  TIP3      OH2           -32.5107125650       -1.1642402595      -25.1395629360  TIP3      4243            0.0000000000
     31444      4403  TIP3      H1            -33.1372936382       -1.6251664708      -25.7096599917  TIP3      4243            0.0000000000
     31445      4403  TIP3      H2            -32.2501993761       -1.8838350448      -24.5470378477  TIP3      4243            0.0000000000
     31446      4404  TIP3      OH2           -29.5177944229       -0.4800977193      -28.9191443332  TIP3      4244            0.0000000000
     31447      4404  TIP3      H1            -29.6598617466        0.4237774835      -29.2875031542  TIP3      4244            0.0000000000
     31448      4404  TIP3      H2            -28.5436473470       -0.4433946243      -28.8183271972  TIP3      4244            0.0000000000
     31449      4405  TIP3      OH2           -25.6224922161        0.6688794587      -26.3459981703  TIP3      4245            0.0000000000
     31450      4405  TIP3      H1            -25.5872639246        0.4523514661      -25.3997003256  TIP3      4245            0.0000000000
     31451      4405  TIP3      H2            -24.7334161541        1.0508869046      -26.5241475569  TIP3      4245            0.0000000000
     31452      4406  TIP3      OH2           -23.4976631587        2.2081782285      -26.7236963646  TIP3      4246            0.0000000000
     31453      4406  TIP3      H1            -22.6824158582        1.9575300453      -27.1860430686  TIP3      4246            0.0000000000
     31454      4406  TIP3      H2            -23.1442385316        2.4896634944      -25.8510060063  TIP3      4246            0.0000000000
     31455      4407  TIP3      OH2           -17.8667363351      -15.5113532059      -27.6596562383  TIP3      4247            0.0000000000
     31456      4407  TIP3      H1            -18.3869994280      -14.9651763848      -28.2577509532  TIP3      4247            0.0000000000
     31457      4407  TIP3      H2            -17.9214562694      -16.3984038552      -28.0558068711  TIP3      4247            0.0000000000
     31458      4408  TIP3      OH2           -32.3803149971        2.7245176296      -28.8104050776  TIP3      4248            0.0000000000
     31459      4408  TIP3      H1            -33.1038266236        3.3738277177      -28.8985005689  TIP3      4248            0.0000000000
     31460      4408  TIP3      H2            -32.1903752315        2.8567812120      -27.8616974101  TIP3      4248            0.0000000000
     31461      4409  TIP3      OH2           -30.2125831494        1.9327008623      -29.9842866692  TIP3      4249            0.0000000000
     31462      4409  TIP3      H1            -31.0917922513        2.0959865407      -29.5603425489  TIP3      4249            0.0000000000
     31463      4409  TIP3      H2            -30.2005901341        2.5763390734      -30.7213358287  TIP3      4249            0.0000000000
     31464      4410  TIP3      OH2           -25.0115743649        2.0089750257      -30.7875496986  TIP3      4250            0.0000000000
     31465      4410  TIP3      H1            -25.7666122838        2.4381113219      -31.2319308700  TIP3      4250            0.0000000000
     31466      4410  TIP3      H2            -24.9550359397        2.5505617139      -29.9665048493  TIP3      4250            0.0000000000
     31467      4411  TIP3      OH2           -22.8918460449        0.7045366618      -29.2818187355  TIP3      4251            0.0000000000
     31468      4411  TIP3      H1            -23.6662968256        0.9050563204      -29.8317536727  TIP3      4251            0.0000000000
     31469      4411  TIP3      H2            -22.3733927262        1.4971352708      -29.5563823395  TIP3      4251            0.0000000000
     31470      4412  TIP3      OH2           -21.5821631492        2.9101794157      -30.2044421629  TIP3      4252            0.0000000000
     31471      4412  TIP3      H1            -21.6290083970        3.8516693230      -29.9627047715  TIP3      4252            0.0000000000
     31472      4412  TIP3      H2            -20.6318584516        2.7762454318      -30.4505093406  TIP3      4252            0.0000000000
     31473      4413  TIP3      OH2           -32.5012011720        1.0767791281      -31.8312277539  TIP3      4253            0.0000000000
     31474      4413  TIP3      H1            -32.8328339393        0.3686849310      -31.2305677985  TIP3      4253            0.0000000000
     31475      4413  TIP3      H2            -31.6562129516        0.6553611879      -32.1172526333  TIP3      4253            0.0000000000
     31476      4414  TIP3      OH2           -30.4888590999       -0.0552520775      -33.1593314049  TIP3      4254            0.0000000000
     31477      4414  TIP3      H1            -30.6668283151       -1.0159575483      -32.9955230475  TIP3      4254            0.0000000000
     31478      4414  TIP3      H2            -29.5859348965        0.0127999989      -32.7821728967  TIP3      4254            0.0000000000
     31479      4415  TIP3      OH2           -28.1254166394        0.0209601693      -32.0713497247  TIP3      4255            0.0000000000
     31480      4415  TIP3      H1            -27.7949324379       -0.8856216184      -32.1864367580  TIP3      4255            0.0000000000
     31481      4415  TIP3      H2            -27.9136311334        0.1670876667      -31.1262602525  TIP3      4255            0.0000000000
     31482      4416  TIP3      OH2           -24.9209914919      -14.3827916523      -33.9089793716  TIP3      4256            0.0000000000
     31483      4416  TIP3      H1            -25.5284772117      -14.9932621316      -33.4601743216  TIP3      4256            0.0000000000
     31484      4416  TIP3      H2            -24.6888876311      -14.8781724392      -34.7140201500  TIP3      4256            0.0000000000
     31485      4417  TIP3      OH2           -19.1102361841      -16.1340409126      -33.4965793565  TIP3      4257            0.0000000000
     31486      4417  TIP3      H1            -18.5609294648      -15.5084659474      -34.0349661768  TIP3      4257            0.0000000000
     31487      4417  TIP3      H2            -20.0009691330      -15.7335650924      -33.5990819953  TIP3      4257            0.0000000000
     31488      4418  TIP3      OH2           -17.6419844956      -14.6518972005      -35.1080901678  TIP3      4258            0.0000000000
     31489      4418  TIP3      H1            -16.8307445171      -14.7413477484      -35.6506860721  TIP3      4258            0.0000000000
     31490      4418  TIP3      H2            -17.3907936255      -13.9359080950      -34.4862933316  TIP3      4258            0.0000000000
     31491      4419  TIP3      OH2           -32.0626556621      -15.6496297848      -35.4668900346  TIP3      4259            0.0000000000
     31492      4419  TIP3      H1            -32.8809154708      -15.9393609482      -35.9540563057  TIP3      4259            0.0000000000
     31493      4419  TIP3      H2            -31.5154674525      -16.4639014074      -35.5531707176  TIP3      4259            0.0000000000
     31494      4420  TIP3      OH2           -33.0983991638      -15.6672265930      -39.3735363826  TIP3      4260            0.0000000000
     31495      4420  TIP3      H1            -33.0856976254      -14.8739507120      -39.9459489941  TIP3      4260            0.0000000000
     31496      4420  TIP3      H2            -33.9087094747      -15.5248118685      -38.8401461087  TIP3      4260            0.0000000000
     31497      4421  TIP3      OH2           -27.5872689283      -15.7193061050      -35.6079302726  TIP3      4261            0.0000000000
     31498      4421  TIP3      H1            -26.8727291760      -15.1991826465      -36.0296037924  TIP3      4261            0.0000000000
     31499      4421  TIP3      H2            -27.1626684442      -15.9689209749      -34.7776799047  TIP3      4261            0.0000000000
     31500      4422  TIP3      OH2           -21.8752062137      -15.6538875337      -33.6211231612  TIP3      4262            0.0000000000
     31501      4422  TIP3      H1            -22.0747473845      -15.3893765413      -34.5445132119  TIP3      4262            0.0000000000
     31502      4422  TIP3      H2            -22.5906293098      -16.3128016006      -33.5515001305  TIP3      4262            0.0000000000
     31503      4423  TIP3      OH2           -20.6227909841      -15.5655494577      -38.7514418561  TIP3      4263            0.0000000000
     31504      4423  TIP3      H1            -21.3139725194      -14.9398208483      -38.4093146158  TIP3      4263            0.0000000000
     31505      4423  TIP3      H2            -21.0445054614      -16.4001560048      -38.4633521600  TIP3      4263            0.0000000000
     31506      4424  TIP3      OH2           -33.9456495914        0.1430681393      -38.6617030633  TIP3      4264            0.0000000000
     31507      4424  TIP3      H1            -33.4817939241       -0.2614046137      -39.4214879661  TIP3      4264            0.0000000000
     31508      4424  TIP3      H2            -33.2755390796        0.8134072943      -38.4523208407  TIP3      4264            0.0000000000
     31509      4425  TIP3      OH2           -32.4807581658      -13.8861211833      -41.3506543338  TIP3      4265            0.0000000000
     31510      4425  TIP3      H1            -31.7605635984      -13.9160952650      -41.9927792136  TIP3      4265            0.0000000000
     31511      4425  TIP3      H2            -32.0714662443      -13.3786489346      -40.6379852275  TIP3      4265            0.0000000000
     31512      4426  TIP3      OH2           -26.7671373716      -14.0094150212      -39.1589514788  TIP3      4266            0.0000000000
     31513      4426  TIP3      H1            -26.3490603242      -14.4881151775      -38.4101122812  TIP3      4266            0.0000000000
     31514      4426  TIP3      H2            -26.3631397431      -13.1248082370      -39.0027054442  TIP3      4266            0.0000000000
     31515      4427  TIP3      OH2           -24.7600882604        2.2984959111      -40.6607662627  TIP3      4267            0.0000000000
     31516      4427  TIP3      H1            -23.8613207718        2.6330963596      -40.7877325916  TIP3      4267            0.0000000000
     31517      4427  TIP3      H2            -24.6856441762        1.4335200901      -41.0978354727  TIP3      4267            0.0000000000
     31518      4428  TIP3      OH2           -17.9819070207        0.7794796397      -37.6021018139  TIP3      4268            0.0000000000
     31519      4428  TIP3      H1            -18.3489883063        0.1194022619      -38.2419724677  TIP3      4268            0.0000000000
     31520      4428  TIP3      H2            -18.0604020572        1.5910828100      -38.1412140312  TIP3      4268            0.0000000000
     31521      4429  TIP3      OH2           -32.7112180959      -15.1362960852      -26.2728497670  TIP3      4269            0.0000000000
     31522      4429  TIP3      H1            -33.1127773645      -16.0048093406      -26.1319998825  TIP3      4269            0.0000000000
     31523      4429  TIP3      H2            -31.9107599260      -15.1915149663      -25.7250840244  TIP3      4269            0.0000000000
     31524      4430  TIP3      OH2           -30.4389038644      -15.6925886713      -24.1261081552  TIP3      4270            0.0000000000
     31525      4430  TIP3      H1            -29.5781895397      -15.5098113667      -24.5323625478  TIP3      4270            0.0000000000
     31526      4430  TIP3      H2            -30.3015703064      -16.6415992221      -23.9439840953  TIP3      4270            0.0000000000
     31527      4431  TIP3      OH2           -30.4152625205        1.3188937060      -42.2716353011  TIP3      4271            0.0000000000
     31528      4431  TIP3      H1            -31.0964156531        1.8867331560      -42.6620866847  TIP3      4271            0.0000000000
     31529      4431  TIP3      H2            -31.0161385608        0.7729020187      -41.7321669800  TIP3      4271            0.0000000000
     31530      4432  TIP3      OH2           -22.0834497239      -15.9275614496      -24.5835218483  TIP3      4272            0.0000000000
     31531      4432  TIP3      H1            -22.2050565711      -16.2162560163      -23.6568055847  TIP3      4272            0.0000000000
     31532      4432  TIP3      H2            -21.1328570518      -16.1567062707      -24.7075337461  TIP3      4272            0.0000000000
     31533      4433  TIP3      OH2           -19.3015278173       -0.5269009919      -25.7690598257  TIP3      4273            0.0000000000
     31534      4433  TIP3      H1            -19.9214497187       -0.4129797558      -26.5302663388  TIP3      4273            0.0000000000
     31535      4433  TIP3      H2            -19.1505592095        0.4167236479      -25.5649442785  TIP3      4273            0.0000000000
     31536      4434  TIP3      OH2            -4.4838700803       -6.1793449402      -35.6621418313  TIP3      4274            0.0000000000
     31537      4434  TIP3      H1             -4.6559781081       -5.2126834198      -35.7695474189  TIP3      4274            0.0000000000
     31538      4434  TIP3      H2             -5.3188067689       -6.5584339611      -35.9832408662  TIP3      4274            0.0000000000
     31539      4435  TIP3      OH2            -4.9465373464       -6.7148523597      -31.5837422909  TIP3      4275            0.0000000000
     31540      4435  TIP3      H1             -5.1081332413       -7.5245334851      -31.0622425004  TIP3      4275            0.0000000000
     31541      4435  TIP3      H2             -5.5564940077       -6.8260166583      -32.3362358883  TIP3      4275            0.0000000000
     31542      4436  TIP3      OH2           -13.1957851622       -7.3550474764      -30.8701527398  TIP3      4276            0.0000000000
     31543      4436  TIP3      H1            -13.3289514332       -8.1711365744      -30.3431010363  TIP3      4276            0.0000000000
     31544      4436  TIP3      H2            -12.2188878086       -7.3602103785      -30.9728149203  TIP3      4276            0.0000000000
     31545      4437  TIP3      OH2            -2.1520948631       -4.1256514746      -34.3609356763  TIP3      4277            0.0000000000
     31546      4437  TIP3      H1             -3.0942167001       -4.3191874412      -34.2692933075  TIP3      4277            0.0000000000
     31547      4437  TIP3      H2             -1.9965095463       -3.6811033995      -33.5208992225  TIP3      4277            0.0000000000
     31548      4438  TIP3      OH2           -12.0651990672       -2.6234350035      -32.4692816526  TIP3      4278            0.0000000000
     31549      4438  TIP3      H1            -12.3292663451       -3.5037511863      -32.8187821134  TIP3      4278            0.0000000000
     31550      4438  TIP3      H2            -11.0917257213       -2.7575820514      -32.5648560403  TIP3      4278            0.0000000000
     31551      4439  TIP3      OH2           -14.9565074863       -8.4118951108      -37.0894585963  TIP3      4279            0.0000000000
     31552      4439  TIP3      H1            -15.5421657155       -7.6551763810      -37.2492859943  TIP3      4279            0.0000000000
     31553      4439  TIP3      H2            -15.5401249700       -9.1437240879      -37.3920424326  TIP3      4279            0.0000000000
     31554      4440  TIP3      OH2           -15.4554697932       -7.1454814011      -34.2544864579  TIP3      4280            0.0000000000
     31555      4440  TIP3      H1            -15.1449309132       -8.0702825932      -34.0935111704  TIP3      4280            0.0000000000
     31556      4440  TIP3      H2            -14.6534871991       -6.7273686508      -34.6065859496  TIP3      4280            0.0000000000
     31557      4441  TIP3      OH2            -4.3204209377        0.1722895591      -32.7406014516  TIP3      4281            0.0000000000
     31558      4441  TIP3      H1             -3.6851258560       -0.3233115618      -33.2742285120  TIP3      4281            0.0000000000
     31559      4441  TIP3      H2             -4.7353084341        0.7565967402      -33.4086591607  TIP3      4281            0.0000000000
     31560      4442  TIP3      OH2            -7.2640821097       -4.8597568057      -31.1474741403  TIP3      4282            0.0000000000
     31561      4442  TIP3      H1             -7.0356997741       -4.6095701570      -32.0787134603  TIP3      4282            0.0000000000
     31562      4442  TIP3      H2             -6.4844484584       -4.4547981855      -30.7165098555  TIP3      4282            0.0000000000
     31563      4443  TIP3      OH2             1.7774591380      -12.7929225757      -31.3530852523  TIP3      4283            0.0000000000
     31564      4443  TIP3      H1              1.7211071688      -12.3305006943      -30.4955410926  TIP3      4283            0.0000000000
     31565      4443  TIP3      H2              1.1380849240      -12.2484827806      -31.8291637461  TIP3      4283            0.0000000000
     31566      4444  TIP3      OH2            -3.5692796628      -10.0905857097      -31.2205342082  TIP3      4284            0.0000000000
     31567      4444  TIP3      H1             -3.2616863057      -10.9818854410      -31.4395127841  TIP3      4284            0.0000000000
     31568      4444  TIP3      H2             -4.1102950971       -9.8505807935      -32.0020234110  TIP3      4284            0.0000000000
     31569      4445  TIP3      OH2           -11.5189131782      -12.3660108233      -34.3210793632  TIP3      4285            0.0000000000
     31570      4445  TIP3      H1            -11.1053811410      -11.8179433980      -35.0259527586  TIP3      4285            0.0000000000
     31571      4445  TIP3      H2            -10.7802184469      -13.0085420864      -34.2727963647  TIP3      4285            0.0000000000
     31572      4446  TIP3      OH2            -2.4863450489      -11.8326672845      -35.7748094810  TIP3      4286            0.0000000000
     31573      4446  TIP3      H1             -2.0934845226      -12.0606751957      -34.8983373782  TIP3      4286            0.0000000000
     31574      4446  TIP3      H2             -2.8302909538      -10.9305629405      -35.6168017419  TIP3      4286            0.0000000000
     31575      4447  TIP3      OH2           -14.1636259040       -9.2615073373      -33.2274145683  TIP3      4287            0.0000000000
     31576      4447  TIP3      H1            -13.7022886980       -9.9064133786      -32.6543128430  TIP3      4287            0.0000000000
     31577      4447  TIP3      H2            -13.8475676065       -9.5317918777      -34.1031070966  TIP3      4287            0.0000000000
     31578      4448  TIP3      OH2           -10.0637049661       -8.1187630270      -34.1292383891  TIP3      4288            0.0000000000
     31579      4448  TIP3      H1             -9.1607505641       -8.2191306491      -34.5441244552  TIP3      4288            0.0000000000
     31580      4448  TIP3      H2            -10.4305164762       -8.9996200288      -34.3632351770  TIP3      4288            0.0000000000
     31581      4449  TIP3      OH2             1.7876427956      -11.3066080128      -28.8655120978  TIP3      4289            0.0000000000
     31582      4449  TIP3      H1              1.1881774412      -10.5367186659      -28.9500473121  TIP3      4289            0.0000000000
     31583      4449  TIP3      H2              1.8392546370      -11.4075926584      -27.9020880103  TIP3      4289            0.0000000000
     31584      4450  TIP3      OH2           -11.6208340007      -13.0617768433      -30.2557382836  TIP3      4290            0.0000000000
     31585      4450  TIP3      H1            -12.1120559149      -12.5875312361      -30.9543584301  TIP3      4290            0.0000000000
     31586      4450  TIP3      H2            -12.2937687661      -13.0470010634      -29.5434360347  TIP3      4290            0.0000000000
     31587      4451  TIP3      OH2            -4.8847401749       -3.7554048017      -36.6790643377  TIP3      4291            0.0000000000
     31588      4451  TIP3      H1             -5.2366248741       -3.8550000595      -37.5836056283  TIP3      4291            0.0000000000
     31589      4451  TIP3      H2             -4.7114946948       -2.7926186073      -36.5864566865  TIP3      4291            0.0000000000
     31590      4452  TIP3      OH2            -9.6749987048       -5.4844444427      -30.2401858396  TIP3      4292            0.0000000000
     31591      4452  TIP3      H1            -10.1445854228       -4.6911925549      -29.9072737380  TIP3      4292            0.0000000000
     31592      4452  TIP3      H2             -8.8527937862       -5.1029035733      -30.6323981004  TIP3      4292            0.0000000000
     31593      4453  TIP3      OH2            -1.0919411986      -12.3693580587      -33.4971740149  TIP3      4293            0.0000000000
     31594      4453  TIP3      H1             -0.8382667579      -13.2396046421      -33.1691115055  TIP3      4293            0.0000000000
     31595      4453  TIP3      H2             -1.0214144048      -11.7787269429      -32.7091163392  TIP3      4293            0.0000000000
     31596      4454  TIP3      OH2           -12.3437563138      -11.0581201359      -32.2225617728  TIP3      4294            0.0000000000
     31597      4454  TIP3      H1            -11.5524100019      -10.5919750746      -31.8627021411  TIP3      4294            0.0000000000
     31598      4454  TIP3      H2            -11.9782611819      -11.4092420597      -33.0761539308  TIP3      4294            0.0000000000
     31599      4455  TIP3      OH2           -10.8875515470       -3.2849695654      -29.4379428882  TIP3      4295            0.0000000000
     31600      4455  TIP3      H1            -11.0606028278       -2.8118296596      -30.2664558805  TIP3      4295            0.0000000000
     31601      4455  TIP3      H2            -11.7535752312       -3.2124680204      -28.9783154096  TIP3      4295            0.0000000000
     31602      4456  TIP3      OH2           -15.0855194537       -4.1910044699      -38.2947650897  TIP3      4296            0.0000000000
     31603      4456  TIP3      H1            -15.1375310773       -3.9185159431      -39.2384758159  TIP3      4296            0.0000000000
     31604      4456  TIP3      H2            -14.8919272675       -3.3273883581      -37.8581352272  TIP3      4296            0.0000000000
     31605      4457  TIP3      OH2            -1.1746241826       -2.1653019898      -31.3294556516  TIP3      4297            0.0000000000
     31606      4457  TIP3      H1             -2.1483950394       -2.2292484860      -31.1698365871  TIP3      4297            0.0000000000
     31607      4457  TIP3      H2             -1.1744912198       -1.3287091652      -31.8458508099  TIP3      4297            0.0000000000
     31608      4458  TIP3      OH2            -1.5022180600      -13.7320356705      -30.4010110082  TIP3      4298            0.0000000000
     31609      4458  TIP3      H1             -2.1242354053      -13.6584679372      -31.1541779929  TIP3      4298            0.0000000000
     31610      4458  TIP3      H2             -0.6763383809      -13.4851402128      -30.8190967219  TIP3      4298            0.0000000000
     31611      4459  TIP3      OH2            -8.2640728871      -15.7757653865      -32.2399771817  TIP3      4299            0.0000000000
     31612      4459  TIP3      H1             -8.5621419212      -16.1813036307      -33.0591973037  TIP3      4299            0.0000000000
     31613      4459  TIP3      H2             -9.0374309450      -15.1760057231      -32.1096077765  TIP3      4299            0.0000000000
     31614      4460  TIP3      OH2            -2.0850643936       -0.8042177633      -34.8207117651  TIP3      4300            0.0000000000
     31615      4460  TIP3      H1             -2.6539834692       -1.2464555382      -35.4807253145  TIP3      4300            0.0000000000
     31616      4460  TIP3      H2             -1.8255225406        0.0347111803      -35.2585347369  TIP3      4300            0.0000000000
     31617      4461  TIP3      OH2            -1.5015467223       -2.7280541543      -36.6826064699  TIP3      4301            0.0000000000
     31618      4461  TIP3      H1             -1.8617022051       -3.3458862382      -37.3556998765  TIP3      4301            0.0000000000
     31619      4461  TIP3      H2             -1.7141206593       -3.2041488477      -35.8458892688  TIP3      4301            0.0000000000
     31620      4462  TIP3      OH2            -0.3040308496       -3.5905270793      -28.3988549492  TIP3      4302            0.0000000000
     31621      4462  TIP3      H1              0.1774075270       -3.5570916014      -29.2394562388  TIP3      4302            0.0000000000
     31622      4462  TIP3      H2              0.0402926278       -2.7374393287      -28.0593230953  TIP3      4302            0.0000000000
     31623      4463  TIP3      OH2            -5.7678158171       -7.0870929250      -38.2235228232  TIP3      4303            0.0000000000
     31624      4463  TIP3      H1             -6.5542593219       -6.6052308570      -38.5161170346  TIP3      4303            0.0000000000
     31625      4463  TIP3      H2             -5.0492640358       -6.4990053662      -38.4960594172  TIP3      4303            0.0000000000
     31626      4464  TIP3      OH2            -5.7162724008       -8.1274886325      -40.9829239082  TIP3      4304            0.0000000000
     31627      4464  TIP3      H1             -5.0928008223       -7.8652931180      -40.2618981882  TIP3      4304            0.0000000000
     31628      4464  TIP3      H2             -5.1043308848       -8.5398774429      -41.6054178237  TIP3      4304            0.0000000000
     31629      4465  TIP3      OH2             1.5451810161       -7.3482087595      -29.9301384397  TIP3      4305            0.0000000000
     31630      4465  TIP3      H1              1.0680859141       -6.5000216273      -30.0824718748  TIP3      4305            0.0000000000
     31631      4465  TIP3      H2              2.2588723929       -7.2221288970      -30.6012007531  TIP3      4305            0.0000000000
     31632      4466  TIP3      OH2            -2.2777505405       -6.9517189376      -37.2566854286  TIP3      4306            0.0000000000
     31633      4466  TIP3      H1             -2.9974890481       -6.8453826571      -36.5902631605  TIP3      4306            0.0000000000
     31634      4466  TIP3      H2             -1.4874598003       -7.1032092171      -36.7004754084  TIP3      4306            0.0000000000
     31635      4467  TIP3      OH2            -2.4043972523       -8.3605551129      -28.4817404575  TIP3      4307            0.0000000000
     31636      4467  TIP3      H1             -2.7923718183       -8.0893170124      -27.6358168236  TIP3      4307            0.0000000000
     31637      4467  TIP3      H2             -3.2201353196       -8.3834707642      -29.0335425489  TIP3      4307            0.0000000000
     31638      4468  TIP3      OH2           -11.2944119121       -6.4633429130      -35.9361885352  TIP3      4308            0.0000000000
     31639      4468  TIP3      H1            -10.7827048506       -6.6723676836      -36.7331499344  TIP3      4308            0.0000000000
     31640      4468  TIP3      H2            -10.7698498200       -6.8881396502      -35.2335891120  TIP3      4308            0.0000000000
     31641      4469  TIP3      OH2            -9.3899614989       -3.0676174993      -32.6557931719  TIP3      4309            0.0000000000
     31642      4469  TIP3      H1             -9.1680660522       -3.1883924292      -33.5948098623  TIP3      4309            0.0000000000
     31643      4469  TIP3      H2             -8.5292495336       -3.3556713068      -32.2889024664  TIP3      4309            0.0000000000
     31644      4470  TIP3      OH2           -10.5886151039       -7.4732626070      -31.6118373515  TIP3      4310            0.0000000000
     31645      4470  TIP3      H1            -10.3248247975       -7.5329097432      -32.5660635051  TIP3      4310            0.0000000000
     31646      4470  TIP3      H2            -10.0073435984       -6.7411332890      -31.2944841561  TIP3      4310            0.0000000000
     31647      4471  TIP3      OH2            -3.7740206274       -2.2340538910      -30.8509857573  TIP3      4311            0.0000000000
     31648      4471  TIP3      H1             -4.3716501244       -1.4864789330      -30.7424648528  TIP3      4311            0.0000000000
     31649      4471  TIP3      H2             -4.3386652203       -2.9887430070      -30.5566052137  TIP3      4311            0.0000000000
     31650      4472  TIP3      OH2            -9.1651660480       -3.1348459292      -27.3607850832  TIP3      4312            0.0000000000
     31651      4472  TIP3      H1             -9.8129263908       -2.6146589954      -26.8365350720  TIP3      4312            0.0000000000
     31652      4472  TIP3      H2             -9.7018269478       -3.2269797822      -28.1802534222  TIP3      4312            0.0000000000
     31653      4473  TIP3      OH2            -3.3633832501       -7.4724400078      -39.6606291957  TIP3      4313            0.0000000000
     31654      4473  TIP3      H1             -2.9659810401       -7.3420541316      -38.7682614604  TIP3      4313            0.0000000000
     31655      4473  TIP3      H2             -2.8101846332       -6.9126562393      -40.2476035634  TIP3      4313            0.0000000000
     31656      4474  TIP3      OH2           -12.2034380273       -7.0975030125      -27.7409471124  TIP3      4314            0.0000000000
     31657      4474  TIP3      H1            -12.2879487247       -6.1473493400      -27.8583751048  TIP3      4314            0.0000000000
     31658      4474  TIP3      H2            -13.0353252024       -7.2986400586      -27.2720542850  TIP3      4314            0.0000000000
     31659      4475  TIP3      OH2            -4.8256701089       -1.1988186504      -35.6786080810  TIP3      4315            0.0000000000
     31660      4475  TIP3      H1             -5.3054146888       -1.7753089205      -35.0536845071  TIP3      4315            0.0000000000
     31661      4475  TIP3      H2             -5.3621987110       -0.3923339794      -35.6626090985  TIP3      4315            0.0000000000
     31662      4476  TIP3      OH2           -11.0943730726       -1.3920155188      -26.2485386096  TIP3      4316            0.0000000000
     31663      4476  TIP3      H1            -11.2223677461       -1.0301840321      -27.1530566912  TIP3      4316            0.0000000000
     31664      4476  TIP3      H2            -12.0056897169       -1.6692867332      -26.0223171119  TIP3      4316            0.0000000000
     31665      4477  TIP3      OH2             0.2751793319      -16.0589666004      -39.5547603494  TIP3      4317            0.0000000000
     31666      4477  TIP3      H1             -0.6522315192      -15.8885287174      -39.3072638440  TIP3      4317            0.0000000000
     31667      4477  TIP3      H2              0.5935964313      -15.1797740208      -39.8038846515  TIP3      4317            0.0000000000
     31668      4478  TIP3      OH2           -11.7278311318       -7.7133169510      -38.3806186145  TIP3      4318            0.0000000000
     31669      4478  TIP3      H1            -12.1624737211       -6.8498491169      -38.2206026292  TIP3      4318            0.0000000000
     31670      4478  TIP3      H2            -12.3475173160       -8.3207812292      -37.9477377309  TIP3      4318            0.0000000000
     31671      4479  TIP3      OH2             1.4038831130       -1.6493147325      -41.4249671090  TIP3      4319            0.0000000000
     31672      4479  TIP3      H1              1.7172725227       -1.0130381695      -42.0827732039  TIP3      4319            0.0000000000
     31673      4479  TIP3      H2              2.2085174493       -2.1898999604      -41.2657162692  TIP3      4319            0.0000000000
     31674      4480  TIP3      OH2           -15.3041276183       -4.7460028957      -28.7966253990  TIP3      4320            0.0000000000
     31675      4480  TIP3      H1            -15.6812417071       -4.8524990761      -29.6895547993  TIP3      4320            0.0000000000
     31676      4480  TIP3      H2            -14.9048756240       -5.6385911991      -28.7158079446  TIP3      4320            0.0000000000
     31677      4481  TIP3      OH2           -15.2575615629       -1.9021994954      -32.1230686027  TIP3      4321            0.0000000000
     31678      4481  TIP3      H1            -14.3150497758       -2.1418240032      -32.1731362572  TIP3      4321            0.0000000000
     31679      4481  TIP3      H2            -15.2002168446       -0.9704684287      -31.8546940713  TIP3      4321            0.0000000000
     31680      4482  TIP3      OH2             2.9039277804       -0.8490477571      -25.8121133901  TIP3      4322            0.0000000000
     31681      4482  TIP3      H1              2.6395881521       -1.5530366120      -26.4485787292  TIP3      4322            0.0000000000
     31682      4482  TIP3      H2              2.1607056888       -0.9374916644      -25.1908870901  TIP3      4322            0.0000000000
     31683      4483  TIP3      OH2            -6.7233993693       -1.9194373297      -27.7574482005  TIP3      4323            0.0000000000
     31684      4483  TIP3      H1             -6.5739334326       -1.1551657570      -27.1500518928  TIP3      4323            0.0000000000
     31685      4483  TIP3      H2             -7.6708297283       -2.1195277818      -27.6002359690  TIP3      4323            0.0000000000
     31686      4484  TIP3      OH2            -6.2995142208        1.8919255150      -38.1284818073  TIP3      4324            0.0000000000
     31687      4484  TIP3      H1             -6.3231666379        2.2137983139      -39.0549347704  TIP3      4324            0.0000000000
     31688      4484  TIP3      H2             -6.2403053288        2.7299653856      -37.6325356565  TIP3      4324            0.0000000000
     31689      4485  TIP3      OH2           -12.4901856573        0.6414286178      -35.8712686336  TIP3      4325            0.0000000000
     31690      4485  TIP3      H1            -12.2511072244        0.3257717495      -34.9633246741  TIP3      4325            0.0000000000
     31691      4485  TIP3      H2            -13.4145955956        0.3675860609      -35.9075237195  TIP3      4325            0.0000000000
     31692      4486  TIP3      OH2            -3.0357422302        1.4009200559      -40.7247675872  TIP3      4326            0.0000000000
     31693      4486  TIP3      H1             -2.5108175659        0.6785796990      -41.1331469712  TIP3      4326            0.0000000000
     31694      4486  TIP3      H2             -3.0210282314        1.1442712200      -39.7727619538  TIP3      4326            0.0000000000
     31695      4487  TIP3      OH2            -3.4959421374        1.1950338377      -38.0751870366  TIP3      4327            0.0000000000
     31696      4487  TIP3      H1             -4.4566750187        1.3604535398      -38.0102474390  TIP3      4327            0.0000000000
     31697      4487  TIP3      H2             -3.4354962494        0.4714043615      -37.4316019070  TIP3      4327            0.0000000000
     31698      4488  TIP3      OH2            -0.6060009810      -10.2589129125      -25.7453081148  TIP3      4328            0.0000000000
     31699      4488  TIP3      H1             -1.1997367145       -9.8948791622      -26.4268885166  TIP3      4328            0.0000000000
     31700      4488  TIP3      H2             -0.3749097138      -11.1294270317      -26.1402482214  TIP3      4328            0.0000000000
     31701      4489  TIP3      OH2           -13.1163469338       -3.1656076311      -27.9497593785  TIP3      4329            0.0000000000
     31702      4489  TIP3      H1            -13.0247073540       -3.5598614003      -27.0531393407  TIP3      4329            0.0000000000
     31703      4489  TIP3      H2            -13.9749827221       -3.5488896862      -28.2290428959  TIP3      4329            0.0000000000
     31704      4490  TIP3      OH2           -10.6675620012      -14.8026304566      -31.9250136413  TIP3      4330            0.0000000000
     31705      4490  TIP3      H1            -11.3721180146      -14.7822474289      -32.5940703191  TIP3      4330            0.0000000000
     31706      4490  TIP3      H2            -11.0071155226      -14.1096674760      -31.3187504987  TIP3      4330            0.0000000000
     31707      4491  TIP3      OH2            -5.6319158022      -15.1764650835      -28.7982796115  TIP3      4331            0.0000000000
     31708      4491  TIP3      H1             -5.3317546568      -15.4067210507      -27.8984740823  TIP3      4331            0.0000000000
     31709      4491  TIP3      H2             -6.6056608163      -15.2357027121      -28.7005792317  TIP3      4331            0.0000000000
     31710      4492  TIP3      OH2            -2.6982897964      -11.1842739930      -27.6839530800  TIP3      4332            0.0000000000
     31711      4492  TIP3      H1             -3.2859966872      -11.4897729882      -26.9676504365  TIP3      4332            0.0000000000
     31712      4492  TIP3      H2             -3.2504155069      -10.5128095709      -28.1178637147  TIP3      4332            0.0000000000
     31713      4493  TIP3      OH2            -1.9494319461       -6.3325887241      -41.5627234534  TIP3      4333            0.0000000000
     31714      4493  TIP3      H1             -1.7890081458       -6.2166878824      -42.5136908811  TIP3      4333            0.0000000000
     31715      4493  TIP3      H2             -1.1731835349       -5.8319540641      -41.2321276315  TIP3      4333            0.0000000000
     31716      4494  TIP3      OH2            -6.2775902155      -12.4551563825      -41.2952844152  TIP3      4334            0.0000000000
     31717      4494  TIP3      H1             -6.9873000241      -11.8019720815      -41.1574249517  TIP3      4334            0.0000000000
     31718      4494  TIP3      H2             -6.5589893176      -12.8617550572      -42.1311413774  TIP3      4334            0.0000000000
     31719      4495  TIP3      OH2           -10.3349082255      -10.0069086533      -30.8164082056  TIP3      4335            0.0000000000
     31720      4495  TIP3      H1            -10.9823041495       -9.8887701350      -30.0994472356  TIP3      4335            0.0000000000
     31721      4495  TIP3      H2            -10.3369568610       -9.1051649376      -31.2008218451  TIP3      4335            0.0000000000
     31722      4496  TIP3      OH2           -10.5570807910      -10.2198463428      -35.7512651491  TIP3      4336            0.0000000000
     31723      4496  TIP3      H1            -11.4142489438       -9.9787170626      -36.1423350223  TIP3      4336            0.0000000000
     31724      4496  TIP3      H2             -9.9166133971       -9.6459973661      -36.2117284771  TIP3      4336            0.0000000000
     31725      4497  TIP3      OH2            -4.7114423631       -9.3357575895      -37.1407588764  TIP3      4337            0.0000000000
     31726      4497  TIP3      H1             -5.3451613589       -8.5893135850      -37.2319864891  TIP3      4337            0.0000000000
     31727      4497  TIP3      H2             -4.2334726810       -9.2421598572      -37.9741816656  TIP3      4337            0.0000000000
     31728      4498  TIP3      OH2            -6.4262748133       -8.8988943038      -25.7694730117  TIP3      4338            0.0000000000
     31729      4498  TIP3      H1             -6.7400389848       -9.7264734042      -25.3346093112  TIP3      4338            0.0000000000
     31730      4498  TIP3      H2             -5.7014749857       -8.6649835243      -25.1718138911  TIP3      4338            0.0000000000
     31731      4499  TIP3      OH2            -3.8443001718       -9.7585712589      -34.1409312218  TIP3      4339            0.0000000000
     31732      4499  TIP3      H1             -4.1756734367       -9.1485977820      -34.8237438021  TIP3      4339            0.0000000000
     31733      4499  TIP3      H2             -4.6428549856      -10.3007492706      -34.0085195492  TIP3      4339            0.0000000000
     31734      4500  TIP3      OH2           -13.0498424106       -9.7686672028      -29.4263789440  TIP3      4340            0.0000000000
     31735      4500  TIP3      H1            -12.7535234302       -9.3570393635      -28.6010484941  TIP3      4340            0.0000000000
     31736      4500  TIP3      H2            -13.3178468018      -10.6610906551      -29.1501577211  TIP3      4340            0.0000000000
     31737      4501  TIP3      OH2            -9.4108274392      -12.0612357033      -41.7961384359  TIP3      4341            0.0000000000
     31738      4501  TIP3      H1             -9.6340403445      -12.3239588912      -40.8666267898  TIP3      4341            0.0000000000
     31739      4501  TIP3      H2             -9.8253442411      -11.1615234522      -41.7899955735  TIP3      4341            0.0000000000
     31740      4502  TIP3      OH2           -15.3268217176      -13.0609103043      -35.2759172609  TIP3      4342            0.0000000000
     31741      4502  TIP3      H1            -15.2586909669      -12.8096627627      -34.3345607814  TIP3      4342            0.0000000000
     31742      4502  TIP3      H2            -15.8536313001      -12.3126945297      -35.6308178639  TIP3      4342            0.0000000000
     31743      4503  TIP3      OH2           -14.8866616757      -12.2820107790      -39.8846949687  TIP3      4343            0.0000000000
     31744      4503  TIP3      H1            -14.4983670442      -11.7217364142      -40.5798938155  TIP3      4343            0.0000000000
     31745      4503  TIP3      H2            -15.3987135938      -11.6029370293      -39.3928137496  TIP3      4343            0.0000000000
     31746      4504  TIP3      OH2            -4.8347582160       -8.5002846850      -29.6146423905  TIP3      4344            0.0000000000
     31747      4504  TIP3      H1             -4.4330981663       -9.2376992236      -30.1382561129  TIP3      4344            0.0000000000
     31748      4504  TIP3      H2             -5.6216507127       -8.9462637072      -29.2165005048  TIP3      4344            0.0000000000
     31749      4505  TIP3      OH2            -6.9174341396      -11.6852522963      -34.5779938241  TIP3      4345            0.0000000000
     31750      4505  TIP3      H1             -7.8672593653      -11.7953994161      -34.7556228492  TIP3      4345            0.0000000000
     31751      4505  TIP3      H2             -6.6772051402      -12.5992060398      -34.3379515463  TIP3      4345            0.0000000000
     31752      4506  TIP3      OH2           -13.4134652537      -10.4780970281      -35.9518203899  TIP3      4346            0.0000000000
     31753      4506  TIP3      H1            -14.2223993388      -10.2540678241      -36.4549486921  TIP3      4346            0.0000000000
     31754      4506  TIP3      H2            -13.3585736497      -11.4398586055      -36.0933141661  TIP3      4346            0.0000000000
     31755      4507  TIP3      OH2            -9.1407330777      -10.5744695661      -38.6589025505  TIP3      4347            0.0000000000
     31756      4507  TIP3      H1             -8.7805906618      -10.0418349134      -37.9301900048  TIP3      4347            0.0000000000
     31757      4507  TIP3      H2             -9.7167516804       -9.9571720322      -39.1286272985  TIP3      4347            0.0000000000
     31758      4508  TIP3      OH2            -3.9871216829      -12.9258014701      -31.7992161130  TIP3      4348            0.0000000000
     31759      4508  TIP3      H1             -4.4933689532      -12.7842777589      -30.9787790665  TIP3      4348            0.0000000000
     31760      4508  TIP3      H2             -4.6839525327      -13.1014617141      -32.4435701983  TIP3      4348            0.0000000000
     31761      4509  TIP3      OH2           -10.4284569451       -9.6936278068      -41.0700994112  TIP3      4349            0.0000000000
     31762      4509  TIP3      H1            -11.0417893855       -9.5292275295      -41.7990958012  TIP3      4349            0.0000000000
     31763      4509  TIP3      H2             -9.6570593636       -9.1229304580      -41.2922305701  TIP3      4349            0.0000000000
     31764      4510  TIP3      OH2            -0.5304917764        2.9125970287      -25.0257500164  TIP3      4350            0.0000000000
     31765      4510  TIP3      H1             -0.1626474424        3.0178539943      -25.9236379863  TIP3      4350            0.0000000000
     31766      4510  TIP3      H2              0.2668013893        2.6511144695      -24.5442923483  TIP3      4350            0.0000000000
     31767      4511  TIP3      OH2           -13.0316574717       -4.7326373457      -25.5727357701  TIP3      4351            0.0000000000
     31768      4511  TIP3      H1            -12.2730475817       -4.9771893946      -24.9877073010  TIP3      4351            0.0000000000
     31769      4511  TIP3      H2            -13.7834150257       -4.9997413008      -25.0023209045  TIP3      4351            0.0000000000
     31770      4512  TIP3      OH2            -6.3220137794       -9.7223084756      -32.8187676597  TIP3      4352            0.0000000000
     31771      4512  TIP3      H1             -6.5101109885       -9.5427320395      -33.7574304357  TIP3      4352            0.0000000000
     31772      4512  TIP3      H2             -6.9403708637      -10.4621040504      -32.7228641333  TIP3      4352            0.0000000000
     31773      4513  TIP3      OH2           -11.9137870733      -13.7623891491      -36.5861490524  TIP3      4353            0.0000000000
     31774      4513  TIP3      H1            -12.5101582356      -14.1585097951      -35.9219048606  TIP3      4353            0.0000000000
     31775      4513  TIP3      H2            -11.0268464120      -14.0492736017      -36.2930282242  TIP3      4353            0.0000000000
     31776      4514  TIP3      OH2            -8.0011616993      -11.2465601979      -30.3579801740  TIP3      4354            0.0000000000
     31777      4514  TIP3      H1             -8.7147622961      -10.6281551568      -30.6256089494  TIP3      4354            0.0000000000
     31778      4514  TIP3      H2             -7.3753960277      -10.6598493308      -29.8933388600  TIP3      4354            0.0000000000
     31779      4515  TIP3      OH2            -7.7214682637       -4.9692748754      -38.6701039332  TIP3      4355            0.0000000000
     31780      4515  TIP3      H1             -8.3928948332       -5.6289186536      -38.9673931111  TIP3      4355            0.0000000000
     31781      4515  TIP3      H2             -8.0621379297       -4.7772230431      -37.7613416628  TIP3      4355            0.0000000000
     31782      4516  TIP3      OH2             0.1247747919       -5.2722435042      -30.7439462244  TIP3      4356            0.0000000000
     31783      4516  TIP3      H1              0.4291595952       -4.4791890860      -31.2110453271  TIP3      4356            0.0000000000
     31784      4516  TIP3      H2             -0.6882003327       -5.4904342625      -31.2629408466  TIP3      4356            0.0000000000
     31785      4517  TIP3      OH2            -3.5687475422      -12.2026271798      -40.4405341649  TIP3      4357            0.0000000000
     31786      4517  TIP3      H1             -4.3101189355      -11.9106483148      -40.9928175602  TIP3      4357            0.0000000000
     31787      4517  TIP3      H2             -3.2277084100      -11.3549216932      -40.0864060784  TIP3      4357            0.0000000000
     31788      4518  TIP3      OH2            -6.3123292503       -4.5246934535      -27.7153657330  TIP3      4358            0.0000000000
     31789      4518  TIP3      H1             -6.5574564920       -4.7377605046      -26.8031263319  TIP3      4358            0.0000000000
     31790      4518  TIP3      H2             -6.5886830191       -3.5824140921      -27.7747751386  TIP3      4358            0.0000000000
     31791      4519  TIP3      OH2            -2.6580616812      -10.0111725447      -39.0736032131  TIP3      4359            0.0000000000
     31792      4519  TIP3      H1             -2.0177993581       -9.9803020681      -38.3378062701  TIP3      4359            0.0000000000
     31793      4519  TIP3      H2             -2.4737970682       -9.1575269212      -39.4962504876  TIP3      4359            0.0000000000
     31794      4520  TIP3      OH2           -12.1829235898       -5.2491646936      -33.2770947861  TIP3      4360            0.0000000000
     31795      4520  TIP3      H1            -12.0048980287       -5.5840443143      -34.1757356445  TIP3      4360            0.0000000000
     31796      4520  TIP3      H2            -12.2346616953       -6.0602668955      -32.7440423480  TIP3      4360            0.0000000000
     31797      4521  TIP3      OH2            -5.3629865445       -3.8544386698      -39.4800594818  TIP3      4361            0.0000000000
     31798      4521  TIP3      H1             -5.8507592376       -3.0026873627      -39.4035805490  TIP3      4361            0.0000000000
     31799      4521  TIP3      H2             -6.1094998801       -4.4628401223      -39.2814694312  TIP3      4361            0.0000000000
     31800      4522  TIP3      OH2           -15.1429103557       -7.2801461027      -27.7101024990  TIP3      4362            0.0000000000
     31801      4522  TIP3      H1            -15.6290475576       -7.9596260937      -27.2080683032  TIP3      4362            0.0000000000
     31802      4522  TIP3      H2            -15.6278420576       -7.4146240950      -28.5630415836  TIP3      4362            0.0000000000
     31803      4523  TIP3      OH2            -8.6563961468       -7.4348001402      -25.8691932536  TIP3      4363            0.0000000000
     31804      4523  TIP3      H1             -9.0218075454       -7.9775659450      -26.5791420867  TIP3      4363            0.0000000000
     31805      4523  TIP3      H2             -7.7702368834       -7.8512330321      -25.7575427960  TIP3      4363            0.0000000000
     31806      4524  TIP3      OH2            -3.5287380760       -1.9767986594      -27.3157240842  TIP3      4364            0.0000000000
     31807      4524  TIP3      H1             -4.2003461825       -1.6317428610      -27.9296803474  TIP3      4364            0.0000000000
     31808      4524  TIP3      H2             -3.8681211845       -1.6408058843      -26.4579601340  TIP3      4364            0.0000000000
     31809      4525  TIP3      OH2             1.9390348428      -10.2053644719      -39.1420742908  TIP3      4365            0.0000000000
     31810      4525  TIP3      H1              1.2214647436      -10.2152035143      -39.8100974585  TIP3      4365            0.0000000000
     31811      4525  TIP3      H2              2.1400622141       -9.2500947153      -39.2161183292  TIP3      4365            0.0000000000
     31812      4526  TIP3      OH2             2.1554258165       -2.8262872328      -27.3429263749  TIP3      4366            0.0000000000
     31813      4526  TIP3      H1              1.9600830357       -3.3597369781      -26.5299594243  TIP3      4366            0.0000000000
     31814      4526  TIP3      H2              2.6893192084       -3.4902629903      -27.8071471655  TIP3      4366            0.0000000000
     31815      4527  TIP3      OH2             0.0636936700       -1.2612723081      -39.0777300963  TIP3      4367            0.0000000000
     31816      4527  TIP3      H1             -0.3091460500       -2.1476311116      -38.9369492075  TIP3      4367            0.0000000000
     31817      4527  TIP3      H2              0.5881587806       -1.3877016717      -39.8964047717  TIP3      4367            0.0000000000
     31818      4528  TIP3      OH2            -2.2400471782       -6.1203334779      -31.7207069230  TIP3      4368            0.0000000000
     31819      4528  TIP3      H1             -3.2172778377       -6.1106542146      -31.8142400510  TIP3      4368            0.0000000000
     31820      4528  TIP3      H2             -2.0385675771       -6.9394737660      -32.2160265241  TIP3      4368            0.0000000000
     31821      4529  TIP3      OH2           -10.0725160035       -1.9941402692      -35.5638172720  TIP3      4369            0.0000000000
     31822      4529  TIP3      H1             -9.2877072291       -1.5124731291      -35.2613569867  TIP3      4369            0.0000000000
     31823      4529  TIP3      H2            -10.4488015929       -1.3687153150      -36.2056323145  TIP3      4369            0.0000000000
     31824      4530  TIP3      OH2           -14.0047161246       -7.2218997484      -41.1853836813  TIP3      4370            0.0000000000
     31825      4530  TIP3      H1            -13.5206352278       -6.6122971866      -40.5948781111  TIP3      4370            0.0000000000
     31826      4530  TIP3      H2            -14.7418085997       -7.4719030175      -40.6019668145  TIP3      4370            0.0000000000
     31827      4531  TIP3      OH2            -8.8601400547       -4.4647077496      -36.2202918022  TIP3      4371            0.0000000000
     31828      4531  TIP3      H1             -9.4072738540       -3.6725525089      -36.0651464843  TIP3      4371            0.0000000000
     31829      4531  TIP3      H2             -8.2522327815       -4.4067263040      -35.4589476455  TIP3      4371            0.0000000000
     31830      4532  TIP3      OH2            -7.7858610532        0.0232095510      -29.3644266676  TIP3      4372            0.0000000000
     31831      4532  TIP3      H1             -7.0856065321        0.5489331376      -29.8021591144  TIP3      4372            0.0000000000
     31832      4532  TIP3      H2             -7.2568230719       -0.6460847428      -28.8882233645  TIP3      4372            0.0000000000
     31833      4533  TIP3      OH2           -10.0973662657        0.6642951799      -36.9035049025  TIP3      4373            0.0000000000
     31834      4533  TIP3      H1            -11.0406661710        0.5978953175      -36.6492137176  TIP3      4373            0.0000000000
     31835      4533  TIP3      H2             -9.7886330635        1.3266750612      -36.2689425615  TIP3      4373            0.0000000000
     31836      4534  TIP3      OH2            -4.8968216721       -4.4157215895      -29.9386156102  TIP3      4374            0.0000000000
     31837      4534  TIP3      H1             -5.3636703361       -4.6277960265      -29.0966279394  TIP3      4374            0.0000000000
     31838      4534  TIP3      H2             -4.8174736223       -5.2848195181      -30.4020181857  TIP3      4374            0.0000000000
     31839      4535  TIP3      OH2            -2.4080888491       -3.0888448140      -40.7546541263  TIP3      4375            0.0000000000
     31840      4535  TIP3      H1             -2.1324071869       -3.5867176014      -39.9530829890  TIP3      4375            0.0000000000
     31841      4535  TIP3      H2             -3.3519432921       -3.3037848220      -40.7300993699  TIP3      4375            0.0000000000
     31842      4536  TIP3      OH2            -1.7967615096        0.1769648480      -27.6433375740  TIP3      4376            0.0000000000
     31843      4536  TIP3      H1             -2.5410953748       -0.4025664168      -27.3837773015  TIP3      4376            0.0000000000
     31844      4536  TIP3      H2             -2.1050037269        0.3560832819      -28.5433547314  TIP3      4376            0.0000000000
     31845      4537  TIP3      OH2             2.1558278828        1.3438783694      -40.6427344935  TIP3      4377            0.0000000000
     31846      4537  TIP3      H1              2.4356633521        1.8695079933      -41.4176983345  TIP3      4377            0.0000000000
     31847      4537  TIP3      H2              1.6708714086        2.0299267042      -40.1456108910  TIP3      4377            0.0000000000
     31848      4538  TIP3      OH2           -13.6494125703      -12.6260464676      -28.3122563719  TIP3      4378            0.0000000000
     31849      4538  TIP3      H1            -14.4928199600      -12.1897994187      -28.0865810864  TIP3      4378            0.0000000000
     31850      4538  TIP3      H2            -13.4446058761      -13.1029452419      -27.4871832183  TIP3      4378            0.0000000000
     31851      4539  TIP3      OH2            -1.6992799658       -4.4744516700      -38.6455062313  TIP3      4379            0.0000000000
     31852      4539  TIP3      H1             -2.0089357633       -5.3025726156      -38.2315769017  TIP3      4379            0.0000000000
     31853      4539  TIP3      H2             -0.7365499976       -4.5164675305      -38.4246302894  TIP3      4379            0.0000000000
     31854      4540  TIP3      OH2           -13.8309592074       -0.4291837825      -29.8901998574  TIP3      4380            0.0000000000
     31855      4540  TIP3      H1            -13.2300805648       -1.0375452594      -29.4348529292  TIP3      4380            0.0000000000
     31856      4540  TIP3      H2            -14.5678408698       -0.2838367486      -29.2728814561  TIP3      4380            0.0000000000
     31857      4541  TIP3      OH2            -9.5593854247       -2.6201192778      -40.0617559757  TIP3      4381            0.0000000000
     31858      4541  TIP3      H1             -8.8264166258       -3.0512624085      -39.5901656437  TIP3      4381            0.0000000000
     31859      4541  TIP3      H2             -9.4082594073       -1.6672722945      -39.8523813732  TIP3      4381            0.0000000000
     31860      4542  TIP3      OH2           -12.7984004006       -5.2863333006      -39.2996422557  TIP3      4382            0.0000000000
     31861      4542  TIP3      H1            -13.4102861531       -4.8143117443      -38.6916868437  TIP3      4382            0.0000000000
     31862      4542  TIP3      H2            -12.0812014137       -4.6442512950      -39.3778331058  TIP3      4382            0.0000000000
     31863      4543  TIP3      OH2            -5.0523025024      -12.4810838807      -28.9261379966  TIP3      4383            0.0000000000
     31864      4543  TIP3      H1             -4.1709216227      -12.5592872887      -28.5378954215  TIP3      4383            0.0000000000
     31865      4543  TIP3      H2             -5.3560094857      -13.4041744276      -28.9201124380  TIP3      4383            0.0000000000
     31866      4544  TIP3      OH2            -3.8692963979      -12.9540656431      -37.7493607065  TIP3      4384            0.0000000000
     31867      4544  TIP3      H1             -3.4772038305      -12.4075639999      -38.4494039422  TIP3      4384            0.0000000000
     31868      4544  TIP3      H2             -3.7656525882      -12.3697766291      -36.9693384644  TIP3      4384            0.0000000000
     31869      4545  TIP3      OH2            -6.6788405220       -1.4741729719      -39.2940740369  TIP3      4385            0.0000000000
     31870      4545  TIP3      H1             -7.2827478447       -0.7423074734      -39.0724166188  TIP3      4385            0.0000000000
     31871      4545  TIP3      H2             -6.0760511646       -1.0228738329      -39.9178924129  TIP3      4385            0.0000000000
     31872      4546  TIP3      OH2            -6.5177661021      -11.4130473460      -37.3537915143  TIP3      4386            0.0000000000
     31873      4546  TIP3      H1             -6.2308451904      -10.4899435996      -37.5159484972  TIP3      4386            0.0000000000
     31874      4546  TIP3      H2             -6.8563363760      -11.2728280838      -36.4439644709  TIP3      4386            0.0000000000
     31875      4547  TIP3      OH2            -6.4411415464      -10.0271014456      -28.2179362465  TIP3      4387            0.0000000000
     31876      4547  TIP3      H1             -6.4538414343       -9.5450658742      -27.3571852784  TIP3      4387            0.0000000000
     31877      4547  TIP3      H2             -6.0001438741      -10.8752000670      -28.0392073712  TIP3      4387            0.0000000000
     31878      4548  TIP3      OH2            -6.1180597774      -14.2952310152      -36.7344105193  TIP3      4388            0.0000000000
     31879      4548  TIP3      H1             -6.7460079234      -14.0360979346      -36.0225370082  TIP3      4388            0.0000000000
     31880      4548  TIP3      H2             -5.5196220547      -13.5199568957      -36.7262692002  TIP3      4388            0.0000000000
     31881      4549  TIP3      OH2            -9.0835971912       -0.0647160973      -39.2713274992  TIP3      4389            0.0000000000
     31882      4549  TIP3      H1             -8.5477609560        0.6981718077      -39.5232322636  TIP3      4389            0.0000000000
     31883      4549  TIP3      H2             -9.5116701800        0.2711465967      -38.4528340885  TIP3      4389            0.0000000000
     31884      4550  TIP3      OH2           -10.3588015670      -12.9579030955      -39.4844318681  TIP3      4390            0.0000000000
     31885      4550  TIP3      H1            -10.4815043928      -12.1387410331      -38.9678657507  TIP3      4390            0.0000000000
     31886      4550  TIP3      H2             -9.8154440721      -13.4566699436      -38.8611536931  TIP3      4390            0.0000000000
     31887      4551  TIP3      OH2            -0.4155903780      -12.6280311699      -27.5257044274  TIP3      4391            0.0000000000
     31888      4551  TIP3      H1             -1.3277419562      -12.2605651208      -27.4546921275  TIP3      4391            0.0000000000
     31889      4551  TIP3      H2             -0.2204891221      -12.4000946529      -28.4439983171  TIP3      4391            0.0000000000
     31890      4552  TIP3      OH2            -1.7504181156       -8.5604827868      -32.9196463365  TIP3      4392            0.0000000000
     31891      4552  TIP3      H1             -2.5805433258       -8.9607628579      -33.2712174309  TIP3      4392            0.0000000000
     31892      4552  TIP3      H2             -1.2366709814       -9.3252141645      -32.6233736907  TIP3      4392            0.0000000000
     31893      4553  TIP3      OH2           -12.2408618826       -2.8233312344      -41.0755450359  TIP3      4393            0.0000000000
     31894      4553  TIP3      H1            -11.4426294027       -2.5157972459      -40.5978119794  TIP3      4393            0.0000000000
     31895      4553  TIP3      H2            -11.8693645936       -3.5449745300      -41.6069069422  TIP3      4393            0.0000000000
     31896      4554  TIP3      OH2           -14.0476831309      -10.0852193865      -41.8580763046  TIP3      4394            0.0000000000
     31897      4554  TIP3      H1            -13.6559731096       -9.2250630700      -41.6398689470  TIP3      4394            0.0000000000
     31898      4554  TIP3      H2            -14.9882530282       -9.8964917027      -41.6595325206  TIP3      4394            0.0000000000
     31899      4555  TIP3      OH2            -0.5834541898        0.4596264431      -31.9373892357  TIP3      4395            0.0000000000
     31900      4555  TIP3      H1             -0.7342235355        1.2144842331      -32.5545722100  TIP3      4395            0.0000000000
     31901      4555  TIP3      H2              0.3720901105        0.5467038560      -31.7477518293  TIP3      4395            0.0000000000
     31902      4556  TIP3      OH2           -13.2266678322      -15.2502920767      -32.7517332033  TIP3      4396            0.0000000000
     31903      4556  TIP3      H1            -13.2488802820      -15.4782491928      -33.7145225967  TIP3      4396            0.0000000000
     31904      4556  TIP3      H2            -13.3537122666      -16.1354875299      -32.3580822305  TIP3      4396            0.0000000000
     31905      4557  TIP3      OH2           -14.7000554403       -1.7127131184      -37.4057092125  TIP3      4397            0.0000000000
     31906      4557  TIP3      H1            -15.2072727709       -1.2075778015      -36.7634893118  TIP3      4397            0.0000000000
     31907      4557  TIP3      H2            -14.4979835197       -1.0036447062      -38.0674073669  TIP3      4397            0.0000000000
     31908      4558  TIP3      OH2           -15.0164199585        1.0155922159      -25.2447687403  TIP3      4398            0.0000000000
     31909      4558  TIP3      H1            -14.2677928212        0.4036238005      -25.2887291479  TIP3      4398            0.0000000000
     31910      4558  TIP3      H2            -15.6985818471        0.4143650275      -25.5967750759  TIP3      4398            0.0000000000
     31911      4559  TIP3      OH2           -10.6645008704        0.6868954466      -24.3345086967  TIP3      4399            0.0000000000
     31912      4559  TIP3      H1             -9.7150031806        0.5469055181      -24.2159621679  TIP3      4399            0.0000000000
     31913      4559  TIP3      H2            -10.8598731726        0.0344560332      -25.0332659223  TIP3      4399            0.0000000000
     31914      4560  TIP3      OH2            -5.3798451675       -0.1114428971      -41.3563492846  TIP3      4400            0.0000000000
     31915      4560  TIP3      H1             -5.9046913488       -0.6277592997      -42.0077020555  TIP3      4400            0.0000000000
     31916      4560  TIP3      H2             -4.6894909056        0.2606396075      -41.9295637535  TIP3      4400            0.0000000000
     31917      4561  TIP3      OH2            -4.1525948629       -0.8537069601      -25.0218769582  TIP3      4401            0.0000000000
     31918      4561  TIP3      H1             -4.3657806057       -1.7704548223      -24.7186129434  TIP3      4401            0.0000000000
     31919      4561  TIP3      H2             -3.2712015866       -0.7505701565      -24.6193491689  TIP3      4401            0.0000000000
     31920      4562  TIP3      OH2            -1.5208838083       -0.4680846927      -42.1058271370  TIP3      4402            0.0000000000
     31921      4562  TIP3      H1             -1.6160020416       -1.1974577238      -41.4576949179  TIP3      4402            0.0000000000
     31922      4562  TIP3      H2             -0.5563135011       -0.4092801606      -42.1899935923  TIP3      4402            0.0000000000
     31923      4563  TIP3      OH2           -15.3941952675       -4.8217873488      -24.2439585902  TIP3      4403            0.0000000000
     31924      4563  TIP3      H1            -16.1249295599       -5.3087980879      -23.8089556250  TIP3      4403            0.0000000000
     31925      4563  TIP3      H2            -15.7953634690       -4.5633315417      -25.1047651116  TIP3      4403            0.0000000000
     31926      4564  TIP3      OH2           -10.4710270897       -5.3059404107      -41.9428256296  TIP3      4404            0.0000000000
     31927      4564  TIP3      H1            -10.0106455073       -5.2080306430      -41.0913721774  TIP3      4404            0.0000000000
     31928      4564  TIP3      H2             -9.7549009615       -5.6145535543      -42.5320975489  TIP3      4404            0.0000000000
     31929      4565  TIP3      OH2            -8.4185845701       -4.8118017892      -25.3236795489  TIP3      4405            0.0000000000
     31930      4565  TIP3      H1             -8.6141819500       -4.2758326238      -26.1231450981  TIP3      4405            0.0000000000
     31931      4565  TIP3      H2             -8.5387653138       -5.7403827090      -25.6562955240  TIP3      4405            0.0000000000
     31932      4566  TIP3      OH2            -3.0284442605       -4.7696131537      -27.0758316699  TIP3      4406            0.0000000000
     31933      4566  TIP3      H1             -2.5527015385       -3.9275921275      -27.2119017807  TIP3      4406            0.0000000000
     31934      4566  TIP3      H2             -3.9270071267       -4.4523624954      -27.2764134118  TIP3      4406            0.0000000000
     31935      4567  TIP3      OH2           -13.7551313456       -8.0448722302      -24.8199507855  TIP3      4407            0.0000000000
     31936      4567  TIP3      H1            -13.5730223647       -8.9752114467      -25.0168580298  TIP3      4407            0.0000000000
     31937      4567  TIP3      H2            -14.7345602875       -8.0664211027      -24.8067775683  TIP3      4407            0.0000000000
     31938      4568  TIP3      OH2            -9.4566033316       -6.8195136480      -39.7912450213  TIP3      4408            0.0000000000
     31939      4568  TIP3      H1            -10.2335396726       -7.2819737382      -39.3979359989  TIP3      4408            0.0000000000
     31940      4568  TIP3      H2             -9.1494098760       -7.4581219772      -40.4682490249  TIP3      4408            0.0000000000
     31941      4569  TIP3      OH2           -10.3522572600       -8.9330148758      -28.1965314117  TIP3      4409            0.0000000000
     31942      4569  TIP3      H1            -10.8921322504       -8.1425271005      -27.9570088789  TIP3      4409            0.0000000000
     31943      4569  TIP3      H2             -9.6104195019       -8.4941795818      -28.6459765095  TIP3      4409            0.0000000000
     31944      4570  TIP3      OH2            -8.2689420501       -8.2778800553      -41.8601662342  TIP3      4410            0.0000000000
     31945      4570  TIP3      H1             -8.0193069761       -8.2468921884      -42.8024998086  TIP3      4410            0.0000000000
     31946      4570  TIP3      H2             -7.3894519954       -8.4066621143      -41.4139491482  TIP3      4410            0.0000000000
     31947      4571  TIP3      OH2            -4.7395241465       -5.7914986592      -24.3270185482  TIP3      4411            0.0000000000
     31948      4571  TIP3      H1             -3.9869660290       -6.1119826175      -23.7876780241  TIP3      4411            0.0000000000
     31949      4571  TIP3      H2             -5.4667899837       -6.3685355336      -24.0727480328  TIP3      4411            0.0000000000
     31950      4572  TIP3      OH2             0.7197697166       -5.6085048672      -41.9863809364  TIP3      4412            0.0000000000
     31951      4572  TIP3      H1              1.2003324988       -6.2196825884      -42.5945388195  TIP3      4412            0.0000000000
     31952      4572  TIP3      H2              0.9298701007       -4.7439534406      -42.3562852116  TIP3      4412            0.0000000000
     31953      4573  TIP3      OH2            -9.4861651191      -11.1988505409      -27.0383826404  TIP3      4413            0.0000000000
     31954      4573  TIP3      H1             -9.3719903969      -11.8945815314      -27.7188004568  TIP3      4413            0.0000000000
     31955      4573  TIP3      H2             -9.6905310623      -10.4067230309      -27.5961025719  TIP3      4413            0.0000000000
     31956      4574  TIP3      OH2            -9.2140052575      -13.1350149848      -28.9403734932  TIP3      4414            0.0000000000
     31957      4574  TIP3      H1             -8.6906500369      -12.5245626930      -29.5306280360  TIP3      4414            0.0000000000
     31958      4574  TIP3      H2            -10.0894417718      -13.1442438477      -29.3898293063  TIP3      4414            0.0000000000
     31959      4575  TIP3      OH2            -8.0813214925       -7.2117505052      -29.1030689147  TIP3      4415            0.0000000000
     31960      4575  TIP3      H1             -7.3100723371       -6.6808796321      -29.3584661013  TIP3      4415            0.0000000000
     31961      4575  TIP3      H2             -8.7963361655       -6.6284133810      -29.4511154717  TIP3      4415            0.0000000000
     31962      4576  TIP3      OH2            -3.3627573905       -9.6733385014      -23.9190330969  TIP3      4416            0.0000000000
     31963      4576  TIP3      H1             -2.9923390594      -10.3357031575      -24.5266371885  TIP3      4416            0.0000000000
     31964      4576  TIP3      H2             -2.6959037616       -8.9786147021      -23.9896990698  TIP3      4416            0.0000000000
     31965      4577  TIP3      OH2            -1.8376880759       -7.0358958242      -25.8062375914  TIP3      4417            0.0000000000
     31966      4577  TIP3      H1             -2.3253966355       -6.2078654077      -25.9701862501  TIP3      4417            0.0000000000
     31967      4577  TIP3      H2             -0.9375985588       -6.6867319593      -25.6726116313  TIP3      4417            0.0000000000
     31968      4578  TIP3      OH2           -10.8591272866      -10.3786358576      -24.8536235717  TIP3      4418            0.0000000000
     31969      4578  TIP3      H1            -11.7024072133      -10.8616842805      -24.8987070108  TIP3      4418            0.0000000000
     31970      4578  TIP3      H2            -10.3126520723      -10.7716547304      -25.5705681842  TIP3      4418            0.0000000000
     31971      4579  TIP3      OH2            -8.2694339072      -15.6091001149      -28.6522369259  TIP3      4419            0.0000000000
     31972      4579  TIP3      H1             -8.4778405617      -14.6424135152      -28.6515903577  TIP3      4419            0.0000000000
     31973      4579  TIP3      H2             -9.0515275901      -15.9551623692      -29.1345514140  TIP3      4419            0.0000000000
     31974      4580  TIP3      OH2            -7.5506555388      -11.1702685333      -24.7773272907  TIP3      4420            0.0000000000
     31975      4580  TIP3      H1             -8.0979031657      -11.5428421574      -24.0639900079  TIP3      4420            0.0000000000
     31976      4580  TIP3      H2             -8.1522356724      -11.2589784202      -25.5363585031  TIP3      4420            0.0000000000
     31977      4581  TIP3      OH2            -4.7011074523      -11.8772450770      -25.5771831131  TIP3      4421            0.0000000000
     31978      4581  TIP3      H1             -5.6702142967      -11.8686359404      -25.5395589089  TIP3      4421            0.0000000000
     31979      4581  TIP3      H2             -4.5567591194      -12.3317592809      -24.7188599905  TIP3      4421            0.0000000000
     31980      4582  TIP3      OH2            -3.1162553243      -13.5508729367      -23.7728845772  TIP3      4422            0.0000000000
     31981      4582  TIP3      H1             -3.2768219927      -14.4461609011      -24.1472060871  TIP3      4422            0.0000000000
     31982      4582  TIP3      H2             -3.1338646737      -13.7354201367      -22.8317891252  TIP3      4422            0.0000000000
     31983      4583  TIP3      OH2           -13.2438744036      -12.0824592042      -24.5615302604  TIP3      4423            0.0000000000
     31984      4583  TIP3      H1            -13.4769113114      -12.9415607869      -24.9492377667  TIP3      4423            0.0000000000
     31985      4583  TIP3      H2            -13.9508672162      -11.9558486193      -23.8793305795  TIP3      4423            0.0000000000
     31986      4584  TIP3      OH2            -8.9510532753      -15.9021042679      -25.7053988258  TIP3      4424            0.0000000000
     31987      4584  TIP3      H1             -8.5725658888      -16.7956018945      -25.7443133656  TIP3      4424            0.0000000000
     31988      4584  TIP3      H2             -8.6116613618      -15.5511268330      -26.5541674740  TIP3      4424            0.0000000000
     31989      4585  TIP3      OH2            -8.1607883665      -14.5188151274      -23.3153316585  TIP3      4425            0.0000000000
     31990      4585  TIP3      H1             -8.3374959690      -15.0015519785      -24.1481486466  TIP3      4425            0.0000000000
     31991      4585  TIP3      H2             -8.8716363915      -13.8410609069      -23.3485647384  TIP3      4425            0.0000000000
     31992      4586  TIP3      OH2            -8.8293435869        2.8454702359      -41.0476219308  TIP3      4426            0.0000000000
     31993      4586  TIP3      H1             -7.9847041922        3.2561204983      -40.8144344397  TIP3      4426            0.0000000000
     31994      4586  TIP3      H2             -8.5967206600        2.4481490500      -41.9163843928  TIP3      4426            0.0000000000
     31995      4587  TIP3      OH2           -15.1656072099       -3.3533185239      -40.9160931336  TIP3      4427            0.0000000000
     31996      4587  TIP3      H1            -14.1968136511       -3.2683856835      -40.9858267236  TIP3      4427            0.0000000000
     31997      4587  TIP3      H2            -15.3970262631       -3.6590239884      -41.8041513123  TIP3      4427            0.0000000000
     31998      4588  TIP3      OH2           -15.9484864181        2.0831172311      -36.3627220364  TIP3      4428            0.0000000000
     31999      4588  TIP3      H1            -16.7465224036        1.5714429587      -36.6205602247  TIP3      4428            0.0000000000
     32000      4588  TIP3      H2            -15.6270404514        1.4906062956      -35.6477556942  TIP3      4428            0.0000000000
     32001      4589  TIP3      OH2           -15.5784159244        0.3420952552      -34.4066183344  TIP3      4429            0.0000000000
     32002      4589  TIP3      H1            -16.1200286468       -0.4673577017      -34.4136776322  TIP3      4429            0.0000000000
     32003      4589  TIP3      H2            -15.7941144454        0.6929751693      -33.4982219584  TIP3      4429            0.0000000000
     32004      4590  TIP3      OH2             2.2473032672        1.0656887966      -31.4603221904  TIP3      4430            0.0000000000
     32005      4590  TIP3      H1              2.0776859988        1.1071326868      -30.5059494239  TIP3      4430            0.0000000000
     32006      4590  TIP3      H2              2.5172194983        1.9874369684      -31.6040718591  TIP3      4430            0.0000000000
     32007      4591  TIP3      OH2             2.1785698241        0.3179312474      -28.4829038678  TIP3      4431            0.0000000000
     32008      4591  TIP3      H1              1.4890165920       -0.2520154195      -28.9196342305  TIP3      4431            0.0000000000
     32009      4591  TIP3      H2              2.0622102137        0.0277865000      -27.5580737774  TIP3      4431            0.0000000000
     32010      4592  TIP3      OH2            -0.7648806879       -3.0428639091      -24.4775095509  TIP3      4432            0.0000000000
     32011      4592  TIP3      H1             -0.4777798354       -3.0357204209      -23.5567219506  TIP3      4432            0.0000000000
     32012      4592  TIP3      H2              0.0122879904       -3.4973500481      -24.8553638471  TIP3      4432            0.0000000000
     32013      4593  TIP3      OH2             0.8123005339       -4.9463637952      -38.1248604633  TIP3      4433            0.0000000000
     32014      4593  TIP3      H1              1.7806362906       -5.0145923115      -38.2692224955  TIP3      4433            0.0000000000
     32015      4593  TIP3      H2              0.6979232172       -5.8342021478      -37.7521816947  TIP3      4433            0.0000000000
     32016      4594  TIP3      OH2             1.4172297103       -7.1362809900      -36.1648760507  TIP3      4434            0.0000000000
     32017      4594  TIP3      H1              0.5963747066       -7.6360635743      -35.9432265183  TIP3      4434            0.0000000000
     32018      4594  TIP3      H2              1.8249895776       -6.9593561986      -35.2888840148  TIP3      4434            0.0000000000
     32019      4595  TIP3      OH2             2.8206287983       -4.3636922214      -30.7744623406  TIP3      4435            0.0000000000
     32020      4595  TIP3      H1              2.9191424302       -5.1840197932      -31.3056596715  TIP3      4435            0.0000000000
     32021      4595  TIP3      H2              2.9446788834       -3.6502269459      -31.4352651096  TIP3      4435            0.0000000000
     32022      4596  TIP3      OH2             0.2147854013       -1.1758396077      -29.3501676111  TIP3      4436            0.0000000000
     32023      4596  TIP3      H1             -0.5922414045       -0.8468653505      -28.9325857870  TIP3      4436            0.0000000000
     32024      4596  TIP3      H2             -0.1713397115       -1.5066308791      -30.1967830089  TIP3      4436            0.0000000000
     32025      4597  TIP3      OH2             1.7077903425       -7.5141847551      -40.2091048184  TIP3      4437            0.0000000000
     32026      4597  TIP3      H1              1.3302308946       -6.6952117468      -40.5850598758  TIP3      4437            0.0000000000
     32027      4597  TIP3      H2              2.2678267958       -7.1381994007      -39.4842763258  TIP3      4437            0.0000000000
     32028      4598  TIP3      OH2            -0.0323749202      -10.0374751944      -41.1866999082  TIP3      4438            0.0000000000
     32029      4598  TIP3      H1              0.4621796208       -9.3243322305      -41.6374215086  TIP3      4438            0.0000000000
     32030      4598  TIP3      H2              0.1227454820      -10.7453101840      -41.8329707248  TIP3      4438            0.0000000000
     32031      4599  TIP3      OH2            -0.6670427459       -8.5099964624      -35.3859520522  TIP3      4439            0.0000000000
     32032      4599  TIP3      H1             -0.5719243012       -9.3601922174      -35.8617247735  TIP3      4439            0.0000000000
     32033      4599  TIP3      H2             -0.9511232175       -8.7211895800      -34.4747392095  TIP3      4439            0.0000000000
     32034      4600  TIP3      OH2           -15.3073042017       -5.9178878774      -31.8244626202  TIP3      4440            0.0000000000
     32035      4600  TIP3      H1            -15.3493573122       -6.3014475153      -32.7229964791  TIP3      4440            0.0000000000
     32036      4600  TIP3      H2            -14.5067943549       -6.3971958991      -31.4887179706  TIP3      4440            0.0000000000
     32037      4601  TIP3      OH2             0.7781821679       -6.4318168459      -26.5308354437  TIP3      4441            0.0000000000
     32038      4601  TIP3      H1              1.3226591802       -7.2482690032      -26.5527760091  TIP3      4441            0.0000000000
     32039      4601  TIP3      H2              1.3980661081       -5.7721587709      -26.1236948982  TIP3      4441            0.0000000000
     32040      4602  TIP3      OH2             1.8622372177       -9.0018472271      -26.3424219968  TIP3      4442            0.0000000000
     32041      4602  TIP3      H1              1.1089313606       -9.4011670838      -25.8697958588  TIP3      4442            0.0000000000
     32042      4602  TIP3      H2              2.6012372874       -9.5703186926      -26.0442090547  TIP3      4442            0.0000000000
     32043      4603  TIP3      OH2            -0.3677821492      -12.5631032608      -42.6561584629  TIP3      4443            0.0000000000
     32044      4603  TIP3      H1              0.0344439111      -12.8041820004      -41.7985516460  TIP3      4443            0.0000000000
     32045      4603  TIP3      H2             -1.2398803483      -12.2302474595      -42.3814122487  TIP3      4443            0.0000000000
     32046      4604  TIP3      OH2            -0.5974885296      -10.4486936727      -37.3432723385  TIP3      4444            0.0000000000
     32047      4604  TIP3      H1             -0.9217208244      -11.3126359319      -37.0340775384  TIP3      4444            0.0000000000
     32048      4604  TIP3      H2             -0.0953756124      -10.6691884377      -38.1393583962  TIP3      4444            0.0000000000
     32049      4605  TIP3      OH2             0.0023768188      -10.8257560196      -31.6889456253  TIP3      4445            0.0000000000
     32050      4605  TIP3      H1              0.8917391156      -10.4420826047      -31.8851749351  TIP3      4445            0.0000000000
     32051      4605  TIP3      H2             -0.1729008979      -10.4075327251      -30.8105784395  TIP3      4445            0.0000000000
     32052      4606  TIP3      OH2            -0.1315896204       -9.4253811166      -29.4804351245  TIP3      4446            0.0000000000
     32053      4606  TIP3      H1             -1.0611244074       -9.1564486163      -29.2639348465  TIP3      4446            0.0000000000
     32054      4606  TIP3      H2              0.3033275616       -8.5775939718      -29.7315698936  TIP3      4446            0.0000000000
     32055      4607  TIP3      OH2           -15.6329417544      -11.8791045014      -25.9529753389  TIP3      4447            0.0000000000
     32056      4607  TIP3      H1            -14.7389125118      -11.7175884839      -25.6243578892  TIP3      4447            0.0000000000
     32057      4607  TIP3      H2            -16.1528584136      -11.7945508017      -25.1302817478  TIP3      4447            0.0000000000
     32058      4608  TIP3      OH2             1.9218893885      -15.8302981036      -24.6446416863  TIP3      4448            0.0000000000
     32059      4608  TIP3      H1              2.3783571178      -16.3844701392      -23.9835358298  TIP3      4448            0.0000000000
     32060      4608  TIP3      H2              2.3245579427      -14.9532618344      -24.5549970885  TIP3      4448            0.0000000000
     32061      4609  TIP3      OH2             0.2065998797      -13.8599579183      -37.6607378861  TIP3      4449            0.0000000000
     32062      4609  TIP3      H1             -0.2183124855      -13.4565156900      -36.8882269391  TIP3      4449            0.0000000000
     32063      4609  TIP3      H2             -0.5516591116      -14.2322456368      -38.1501708278  TIP3      4449            0.0000000000
     32064      4610  TIP3      OH2           -14.3842764526      -12.7757281034      -32.5251543707  TIP3      4450            0.0000000000
     32065      4610  TIP3      H1            -14.0340294582      -13.6443163374      -32.7936079529  TIP3      4450            0.0000000000
     32066      4610  TIP3      H2            -13.5970044233      -12.2104402915      -32.5939641975  TIP3      4450            0.0000000000
     32067      4611  TIP3      OH2           -16.1258822195       -9.7515513911      -31.5440783726  TIP3      4451            0.0000000000
     32068      4611  TIP3      H1            -16.0999008888      -10.6503741312      -31.9038543015  TIP3      4451            0.0000000000
     32069      4611  TIP3      H2            -15.3829751433       -9.3340880182      -32.0263608881  TIP3      4451            0.0000000000
     32070      4612  TIP3      OH2             1.8198054189      -13.2059142595      -25.4314227996  TIP3      4452            0.0000000000
     32071      4612  TIP3      H1              1.0834789117      -13.0824767127      -24.7833315512  TIP3      4452            0.0000000000
     32072      4612  TIP3      H2              1.2809615029      -13.5138479576      -26.1744668763  TIP3      4452            0.0000000000
     32073      4613  TIP3      OH2             1.8691127802      -13.4565166281      -40.9744162676  TIP3      4453            0.0000000000
     32074      4613  TIP3      H1              1.8660858480      -13.6006135992      -41.9311130264  TIP3      4453            0.0000000000
     32075      4613  TIP3      H2              2.6577625708      -12.8881346318      -40.8500215072  TIP3      4453            0.0000000000
     32076      4614  TIP3      OH2           -15.9946282164      -14.1488267967      -38.1031383854  TIP3      4454            0.0000000000
     32077      4614  TIP3      H1            -15.9634706391      -13.4781387188      -37.3857650765  TIP3      4454            0.0000000000
     32078      4614  TIP3      H2            -15.7972012164      -13.5739159421      -38.8691087289  TIP3      4454            0.0000000000
     32079      4615  TIP3      OH2            -0.9684394018        1.4529332898      -35.7285650249  TIP3      4455            0.0000000000
     32080      4615  TIP3      H1             -0.8464487724        2.1569877597      -36.3792766789  TIP3      4455            0.0000000000
     32081      4615  TIP3      H2             -0.9542048058        1.9730361049      -34.9007177994  TIP3      4455            0.0000000000
     32082      4616  TIP3      OH2           -15.4421224518      -15.2577295335      -29.2599227639  TIP3      4456            0.0000000000
     32083      4616  TIP3      H1            -16.1797589180      -15.4490014366      -28.6492133340  TIP3      4456            0.0000000000
     32084      4616  TIP3      H2            -15.8869764350      -14.6089173787      -29.8498481425  TIP3      4456            0.0000000000
     32085      4617  TIP3      OH2           -13.6904626243       -1.9522741519      -25.2525557325  TIP3      4457            0.0000000000
     32086      4617  TIP3      H1            -14.2368632100       -2.5957899797      -25.7371862449  TIP3      4457            0.0000000000
     32087      4617  TIP3      H2            -13.9749238701       -2.1107564228      -24.3358177598  TIP3      4457            0.0000000000
     32088      4618  TIP3      OH2           -10.5497504480       -0.3197895417      -28.7564379035  TIP3      4458            0.0000000000
     32089      4618  TIP3      H1            -10.8286809671        0.5359696085      -29.1423234512  TIP3      4458            0.0000000000
     32090      4618  TIP3      H2             -9.5799607757       -0.2405359359      -28.8159507762  TIP3      4458            0.0000000000
     32091      4619  TIP3      OH2            -6.7149810144        0.2495863641      -26.2516423293  TIP3      4459            0.0000000000
     32092      4619  TIP3      H1             -6.7338254521        0.3328460783      -25.2789364159  TIP3      4459            0.0000000000
     32093      4619  TIP3      H2             -5.9952200193        0.8878101931      -26.4726609152  TIP3      4459            0.0000000000
     32094      4620  TIP3      OH2            -4.7550806692        2.1713488903      -26.7813444738  TIP3      4460            0.0000000000
     32095      4620  TIP3      H1             -4.0029347000        2.2166728394      -27.4062912544  TIP3      4460            0.0000000000
     32096      4620  TIP3      H2             -4.3782782482        2.5501788218      -25.9703607502  TIP3      4460            0.0000000000
     32097      4621  TIP3      OH2             0.2416346939      -15.5955004609      -27.6600380373  TIP3      4461            0.0000000000
     32098      4621  TIP3      H1             -0.1558470358      -14.7496135184      -27.9450929774  TIP3      4461            0.0000000000
     32099      4621  TIP3      H2             -0.0410304193      -16.1775897310      -28.4113836476  TIP3      4461            0.0000000000
     32100      4622  TIP3      OH2           -13.1154273563        2.7499023630      -29.0140163983  TIP3      4462            0.0000000000
     32101      4622  TIP3      H1            -13.9590306522        3.1310474582      -29.3367477871  TIP3      4462            0.0000000000
     32102      4622  TIP3      H2            -13.4265782939        2.3860906745      -28.1770517577  TIP3      4462            0.0000000000
     32103      4623  TIP3      OH2           -10.6799410954        2.1876742952      -30.0623257762  TIP3      4463            0.0000000000
     32104      4623  TIP3      H1            -11.5144236846        2.4506331255      -29.6099378559  TIP3      4463            0.0000000000
     32105      4623  TIP3      H2            -10.7081022852        2.7783988195      -30.8473714494  TIP3      4463            0.0000000000
     32106      4624  TIP3      OH2            -6.3304240835        1.8541959025      -30.8757727479  TIP3      4464            0.0000000000
     32107      4624  TIP3      H1             -6.5376694322        2.3745462867      -31.6632885702  TIP3      4464            0.0000000000
     32108      4624  TIP3      H2             -6.1635262733        2.5534004357      -30.1989067519  TIP3      4464            0.0000000000
     32109      4625  TIP3      OH2            -4.2580883244        0.7582639699      -29.3552976953  TIP3      4465            0.0000000000
     32110      4625  TIP3      H1             -4.5733415024        0.6991865429      -30.2762020126  TIP3      4465            0.0000000000
     32111      4625  TIP3      H2             -3.9426554793        1.6864591058      -29.4079319043  TIP3      4465            0.0000000000
     32112      4626  TIP3      OH2            -0.2634105531        2.1160128906      -29.8203308824  TIP3      4466            0.0000000000
     32113      4626  TIP3      H1             -1.1803302893        2.4655960954      -29.7068376651  TIP3      4466            0.0000000000
     32114      4626  TIP3      H2             -0.4223575896        1.4069804616      -30.4803666081  TIP3      4466            0.0000000000
     32115      4627  TIP3      OH2           -13.5034059307        1.2400083433      -32.0032370048  TIP3      4467            0.0000000000
     32116      4627  TIP3      H1            -13.7232563938        0.6150717075      -31.2716713806  TIP3      4467            0.0000000000
     32117      4627  TIP3      H2            -12.7426570054        0.7880060481      -32.4235367108  TIP3      4467            0.0000000000
     32118      4628  TIP3      OH2           -11.5106318495        0.0389492460      -33.4290771894  TIP3      4468            0.0000000000
     32119      4628  TIP3      H1            -11.7315306825       -0.8628558073      -33.1128682977  TIP3      4468            0.0000000000
     32120      4628  TIP3      H2            -10.6291606072        0.1346273975      -32.9969151045  TIP3      4468            0.0000000000
     32121      4629  TIP3      OH2            -9.2555775162       -0.1389572093      -32.1154995021  TIP3      4469            0.0000000000
     32122      4629  TIP3      H1             -8.7187977640       -0.9291034874      -32.3025040641  TIP3      4469            0.0000000000
     32123      4629  TIP3      H2             -9.0054024864        0.0701686121      -31.2015157678  TIP3      4469            0.0000000000
     32124      4630  TIP3      OH2            -6.1633185372      -14.2336573761      -33.9875157459  TIP3      4470            0.0000000000
     32125      4630  TIP3      H1             -7.1176400517      -14.3131103356      -33.7679820815  TIP3      4470            0.0000000000
     32126      4630  TIP3      H2             -5.8030671824      -15.0478479918      -33.6186250923  TIP3      4470            0.0000000000
     32127      4631  TIP3      OH2            -0.7693894300      -16.0187473958      -33.6758699792  TIP3      4471            0.0000000000
     32128      4631  TIP3      H1             -0.2043458151      -15.3684898110      -34.1705334427  TIP3      4471            0.0000000000
     32129      4631  TIP3      H2             -1.6027215468      -15.9714317356      -34.1957905178  TIP3      4471            0.0000000000
     32130      4632  TIP3      OH2             0.8670543795      -14.7447072844      -35.2159531681  TIP3      4472            0.0000000000
     32131      4632  TIP3      H1              0.9693778503      -15.2293182148      -36.0584933386  TIP3      4472            0.0000000000
     32132      4632  TIP3      H2              1.1961101826      -13.8457069552      -35.4427170388  TIP3      4472            0.0000000000
     32133      4633  TIP3      OH2           -13.3716314376      -15.8215556918      -35.3264773339  TIP3      4473            0.0000000000
     32134      4633  TIP3      H1            -14.0370516913      -15.4835063516      -35.9508856455  TIP3      4473            0.0000000000
     32135      4633  TIP3      H2            -13.0896795367      -16.6646232009      -35.7364745172  TIP3      4473            0.0000000000
     32136      4634  TIP3      OH2           -14.7638133122      -15.7262833954      -40.0314505498  TIP3      4474            0.0000000000
     32137      4634  TIP3      H1            -14.1080859236      -15.0301741604      -40.2705516338  TIP3      4474            0.0000000000
     32138      4634  TIP3      H2            -15.2650284844      -15.2919345425      -39.3035703227  TIP3      4474            0.0000000000
     32139      4635  TIP3      OH2            -8.7081690202      -16.9515248968      -35.5238642378  TIP3      4475            0.0000000000
     32140      4635  TIP3      H1             -7.9535448709      -16.3720460520      -35.7016055530  TIP3      4475            0.0000000000
     32141      4635  TIP3      H2             -9.3084420186      -16.2860314910      -35.1287853977  TIP3      4475            0.0000000000
     32142      4636  TIP3      OH2            -3.3162734464      -15.5422169500      -34.8565649410  TIP3      4476            0.0000000000
     32143      4636  TIP3      H1             -4.2020761124      -15.2086592819      -35.0485452376  TIP3      4476            0.0000000000
     32144      4636  TIP3      H2             -3.5513092681      -16.1971358933      -34.1613074849  TIP3      4476            0.0000000000
     32145      4637  TIP3      OH2            -2.0243323212      -15.4615303440      -38.2259844805  TIP3      4477            0.0000000000
     32146      4637  TIP3      H1             -2.3903917582      -15.0707299004      -37.4122029885  TIP3      4477            0.0000000000
     32147      4637  TIP3      H2             -2.2777441116      -16.4076960682      -38.1282555841  TIP3      4477            0.0000000000
     32148      4638  TIP3      OH2           -14.6958317618        0.5029946604      -38.8268073141  TIP3      4478            0.0000000000
     32149      4638  TIP3      H1            -15.6348570995        0.5451706629      -39.0883917695  TIP3      4478            0.0000000000
     32150      4638  TIP3      H2            -14.4620832527        1.4337470281      -39.0277526320  TIP3      4478            0.0000000000
     32151      4639  TIP3      OH2           -12.7264138789      -14.4067811528      -41.1242979822  TIP3      4479            0.0000000000
     32152      4639  TIP3      H1            -12.2633805837      -14.1320530893      -41.9214179208  TIP3      4479            0.0000000000
     32153      4639  TIP3      H2            -12.8916542676      -13.5424959003      -40.7039086026  TIP3      4479            0.0000000000
     32154      4640  TIP3      OH2            -7.6616306260      -13.4657756582      -38.7749994456  TIP3      4480            0.0000000000
     32155      4640  TIP3      H1             -7.6263071664      -13.7339905121      -37.8347962384  TIP3      4480            0.0000000000
     32156      4640  TIP3      H2             -7.4844766915      -12.5080257546      -38.6176149027  TIP3      4480            0.0000000000
     32157      4641  TIP3      OH2            -5.8896492833        2.4403613333      -40.6777384387  TIP3      4481            0.0000000000
     32158      4641  TIP3      H1             -5.1250306933        2.6808719467      -41.2203596450  TIP3      4481            0.0000000000
     32159      4641  TIP3      H2             -5.7784342922        1.4600809318      -40.7153970136  TIP3      4481            0.0000000000
     32160      4642  TIP3      OH2             0.8747122794        0.9157462600      -37.7532702351  TIP3      4482            0.0000000000
     32161      4642  TIP3      H1              0.5652415414        0.2318031667      -38.3956728465  TIP3      4482            0.0000000000
     32162      4642  TIP3      H2              0.7136257904        1.7125317494      -38.3001411385  TIP3      4482            0.0000000000
     32163      4643  TIP3      OH2           -13.3989257686      -14.8157159465      -26.0335247350  TIP3      4483            0.0000000000
     32164      4643  TIP3      H1            -14.1983929277      -15.3349059786      -25.8547754033  TIP3      4483            0.0000000000
     32165      4643  TIP3      H2            -12.9193128066      -14.9327104531      -25.1905224594  TIP3      4483            0.0000000000
     32166      4644  TIP3      OH2           -11.4209199031      -15.6940826950      -23.9546344631  TIP3      4484            0.0000000000
     32167      4644  TIP3      H1            -10.6355923385      -15.1646303125      -24.1856184948  TIP3      4484            0.0000000000
     32168      4644  TIP3      H2            -11.1343403200      -16.5480295540      -24.3221476046  TIP3      4484            0.0000000000
     32169      4645  TIP3      OH2           -12.9085841537        1.6249085415      -41.9856469825  TIP3      4485            0.0000000000
     32170      4645  TIP3      H1            -13.4886355178        1.9150034182      -41.2560092821  TIP3      4485            0.0000000000
     32171      4645  TIP3      H2            -12.4918436654        0.8441094706      -41.5997566156  TIP3      4485            0.0000000000
     32172      4646  TIP3      OH2            -3.4426897955      -16.2073239446      -24.4741013223  TIP3      4486            0.0000000000
     32173      4646  TIP3      H1             -3.5623874373      -16.8161796075      -23.7172686573  TIP3      4486            0.0000000000
     32174      4646  TIP3      H2             -2.4760641245      -16.2892534868      -24.6286982050  TIP3      4486            0.0000000000
     32175      4647  TIP3      OH2             0.3590848116        0.4535895844      -26.0171597644  TIP3      4487            0.0000000000
     32176      4647  TIP3      H1             -0.2550173241        0.0937576132      -26.6911857977  TIP3      4487            0.0000000000
     32177      4647  TIP3      H2             -0.2359728599        1.0905683084      -25.5931322667  TIP3      4487            0.0000000000
     32178      4648  TIP3      OH2            14.3604242552       -6.3312759076      -35.6418095236  TIP3      4488            0.0000000000
     32179      4648  TIP3      H1             14.4873271237       -5.3862684043      -35.4457387609  TIP3      4488            0.0000000000
     32180      4648  TIP3      H2             13.8224174645       -6.2813046447      -36.4451949034  TIP3      4488            0.0000000000
     32181      4649  TIP3      OH2            13.5681911988       -7.5592415977      -32.3533960356  TIP3      4489            0.0000000000
     32182      4649  TIP3      H1             13.6537087375       -7.7632391093      -31.3968275097  TIP3      4489            0.0000000000
     32183      4649  TIP3      H2             12.7080171438       -7.1225921096      -32.4183164280  TIP3      4489            0.0000000000
     32184      4650  TIP3      OH2             5.7605766183       -7.3294279196      -30.9657033367  TIP3      4490            0.0000000000
     32185      4650  TIP3      H1              5.6027550844       -7.8554575653      -30.1579725336  TIP3      4490            0.0000000000
     32186      4650  TIP3      H2              6.2355472727       -6.5790175611      -30.5674639198  TIP3      4490            0.0000000000
     32187      4651  TIP3      OH2            16.9403634641       -4.0657037288      -33.8615106607  TIP3      4491            0.0000000000
     32188      4651  TIP3      H1             16.7152621528       -4.8511253486      -33.3397723403  TIP3      4491            0.0000000000
     32189      4651  TIP3      H2             17.0382838138       -3.3945193538      -33.1600698668  TIP3      4491            0.0000000000
     32190      4652  TIP3      OH2             6.6913740293       -2.7604490395      -32.7325218303  TIP3      4492            0.0000000000
     32191      4652  TIP3      H1              6.2835077068       -3.6232337798      -32.9542759827  TIP3      4492            0.0000000000
     32192      4652  TIP3      H2              7.5787264265       -3.0686191005      -32.4999917210  TIP3      4492            0.0000000000
     32193      4653  TIP3      OH2             3.0341861516       -9.3944230701      -36.6650446865  TIP3      4493            0.0000000000
     32194      4653  TIP3      H1              2.8721332697       -8.4360798145      -36.5040810636  TIP3      4493            0.0000000000
     32195      4653  TIP3      H2              2.3887767905       -9.5646013869      -37.3797790174  TIP3      4493            0.0000000000
     32196      4654  TIP3      OH2             3.5370332161       -7.0091911603      -34.3170881875  TIP3      4494            0.0000000000
     32197      4654  TIP3      H1              4.0785501899       -7.8066659665      -34.4463207332  TIP3      4494            0.0000000000
     32198      4654  TIP3      H2              4.1104344611       -6.3113332197      -34.6854449936  TIP3      4494            0.0000000000
     32199      4655  TIP3      OH2            14.1812264908        1.3202450710      -34.0066370147  TIP3      4495            0.0000000000
     32200      4655  TIP3      H1             14.7668669152        0.6592710533      -34.4399223004  TIP3      4495            0.0000000000
     32201      4655  TIP3      H2             13.9319471580        0.8319490375      -33.2143351449  TIP3      4495            0.0000000000
     32202      4656  TIP3      OH2            11.5613291544       -4.8402041615      -31.3106795572  TIP3      4496            0.0000000000
     32203      4656  TIP3      H1             11.7257175407       -4.7148238726      -32.2516530091  TIP3      4496            0.0000000000
     32204      4656  TIP3      H2             12.4444632892       -4.5674564751      -30.9665822218  TIP3      4496            0.0000000000
     32205      4657  TIP3      OH2            20.2410386545      -12.5210366577      -31.1768196897  TIP3      4497            0.0000000000
     32206      4657  TIP3      H1             20.6775346802      -12.1368006375      -30.3853019775  TIP3      4497            0.0000000000
     32207      4657  TIP3      H2             20.8752434267      -13.2436532192      -31.3865136633  TIP3      4497            0.0000000000
     32208      4658  TIP3      OH2            15.1578945289      -10.3220499141      -31.2481232549  TIP3      4498            0.0000000000
     32209      4658  TIP3      H1             15.8016538287      -10.9775775834      -30.9136720947  TIP3      4498            0.0000000000
     32210      4658  TIP3      H2             15.0594839137      -10.5932412711      -32.1776771698  TIP3      4498            0.0000000000
     32211      4659  TIP3      OH2             7.8888399807      -12.1253588914      -34.5130816742  TIP3      4499            0.0000000000
     32212      4659  TIP3      H1              8.7265546091      -11.6660196051      -34.7426915900  TIP3      4499            0.0000000000
     32213      4659  TIP3      H2              7.8927754597      -12.8989025548      -35.1144750625  TIP3      4499            0.0000000000
     32214      4660  TIP3      OH2            15.8782480486      -11.9521818367      -35.7824315315  TIP3      4500            0.0000000000
     32215      4660  TIP3      H1             16.4729702532      -12.3107879383      -35.0882672214  TIP3      4500            0.0000000000
     32216      4660  TIP3      H2             16.4925092774      -11.4294140064      -36.3249924002  TIP3      4500            0.0000000000
     32217      4661  TIP3      OH2             4.5690864943       -9.6412265680      -33.7810942440  TIP3      4501            0.0000000000
     32218      4661  TIP3      H1              5.3795774895       -9.8666990772      -33.2973737176  TIP3      4501            0.0000000000
     32219      4661  TIP3      H2              4.7601250939       -9.9581885819      -34.6813563276  TIP3      4501            0.0000000000
     32220      4662  TIP3      OH2             9.5379542158       -8.0219367128      -34.1396827925  TIP3      4502            0.0000000000
     32221      4662  TIP3      H1             10.4332279520       -8.1799235354      -33.8011406226  TIP3      4502            0.0000000000
     32222      4662  TIP3      H2              9.4707761564       -8.7817099660      -34.7560005217  TIP3      4502            0.0000000000
     32223      4663  TIP3      OH2            20.9011651603      -11.4673044691      -28.8243710095  TIP3      4503            0.0000000000
     32224      4663  TIP3      H1             20.1768534272      -10.8884082645      -29.1501370087  TIP3      4503            0.0000000000
     32225      4663  TIP3      H2             20.9153872036      -11.2510630811      -27.8826996199  TIP3      4503            0.0000000000
     32226      4664  TIP3      OH2             7.1576597208      -13.0344051589      -30.0939284455  TIP3      4504            0.0000000000
     32227      4664  TIP3      H1              6.7868259180      -12.4325707987      -30.7606375650  TIP3      4504            0.0000000000
     32228      4664  TIP3      H2              6.6593677849      -12.7540562055      -29.2989428240  TIP3      4504            0.0000000000
     32229      4665  TIP3      OH2            14.1238715329       -3.7479436898      -36.6178431911  TIP3      4505            0.0000000000
     32230      4665  TIP3      H1             13.9396448026       -4.0194886707      -37.5371847559  TIP3      4505            0.0000000000
     32231      4665  TIP3      H2             14.2706384294       -2.7957407979      -36.6765715816  TIP3      4505            0.0000000000
     32232      4666  TIP3      OH2             9.1308568662       -5.4830062166      -30.2024193282  TIP3      4506            0.0000000000
     32233      4666  TIP3      H1              8.5641865581       -4.6818895048      -30.0975923048  TIP3      4506            0.0000000000
     32234      4666  TIP3      H2              9.9491186778       -5.0956585057      -30.5769179300  TIP3      4506            0.0000000000
     32235      4667  TIP3      OH2            17.4515015211      -12.1966641739      -33.5913295550  TIP3      4507            0.0000000000
     32236      4667  TIP3      H1             17.6533353593      -13.0876681600      -33.2692797170  TIP3      4507            0.0000000000
     32237      4667  TIP3      H2             17.7323272056      -11.6398767611      -32.8286748111  TIP3      4507            0.0000000000
     32238      4668  TIP3      OH2             6.6597809018      -11.2504668645      -32.2910299012  TIP3      4508            0.0000000000
     32239      4668  TIP3      H1              7.3253216830      -10.6340413473      -31.8978363811  TIP3      4508            0.0000000000
     32240      4668  TIP3      H2              7.1803853917      -11.6186571844      -33.0454206729  TIP3      4508            0.0000000000
     32241      4669  TIP3      OH2             7.8132247953       -3.3668292305      -29.4016439958  TIP3      4509            0.0000000000
     32242      4669  TIP3      H1              7.8502311529       -2.4221902649      -29.6291420392  TIP3      4509            0.0000000000
     32243      4669  TIP3      H2              6.9291717247       -3.3937306556      -28.9583675029  TIP3      4509            0.0000000000
     32244      4670  TIP3      OH2             4.1062118677       -2.9468893151      -38.1422758926  TIP3      4510            0.0000000000
     32245      4670  TIP3      H1              3.8433150831       -2.9479166001      -39.0730347941  TIP3      4510            0.0000000000
     32246      4670  TIP3      H2              3.8825305976       -3.8695963505      -37.8990117137  TIP3      4510            0.0000000000
     32247      4671  TIP3      OH2            17.6634717784       -2.1674264964      -32.0421158632  TIP3      4511            0.0000000000
     32248      4671  TIP3      H1             16.7744199325       -2.1996712785      -31.6091498886  TIP3      4511            0.0000000000
     32249      4671  TIP3      H2             17.7293878495       -1.1861243881      -32.0454234940  TIP3      4511            0.0000000000
     32250      4672  TIP3      OH2            17.9995302256      -13.6051063710      -30.3994041876  TIP3      4512            0.0000000000
     32251      4672  TIP3      H1             17.1485467586      -13.5203223512      -30.8820857395  TIP3      4512            0.0000000000
     32252      4672  TIP3      H2             18.5825808447      -12.9260235435      -30.8162696445  TIP3      4512            0.0000000000
     32253      4673  TIP3      OH2            10.6407927582      -15.6961129564      -32.9141006672  TIP3      4513            0.0000000000
     32254      4673  TIP3      H1             10.3745050595      -16.6307796051      -33.0081384848  TIP3      4513            0.0000000000
     32255      4673  TIP3      H2              9.8185097284      -15.2783986341      -32.5868718989  TIP3      4513            0.0000000000
     32256      4674  TIP3      OH2            15.7155084579       -0.4944511111      -35.2541382633  TIP3      4514            0.0000000000
     32257      4674  TIP3      H1             16.0804391813       -1.3048773925      -35.6659456087  TIP3      4514            0.0000000000
     32258      4674  TIP3      H2             16.4881412254        0.1005458046      -35.3997262978  TIP3      4514            0.0000000000
     32259      4675  TIP3      OH2            16.9046451955       -2.5383883741      -36.5884781321  TIP3      4515            0.0000000000
     32260      4675  TIP3      H1             16.8807312847       -3.1527326552      -37.3720199328  TIP3      4515            0.0000000000
     32261      4675  TIP3      H2             16.7494036544       -3.1793282997      -35.8688292731  TIP3      4515            0.0000000000
     32262      4676  TIP3      OH2            18.3325338855       -4.0465415216      -27.9873840017  TIP3      4516            0.0000000000
     32263      4676  TIP3      H1             18.5855890596       -4.7849665131      -28.5835217374  TIP3      4516            0.0000000000
     32264      4676  TIP3      H2             18.6029784603       -3.2760938775      -28.5228562330  TIP3      4516            0.0000000000
     32265      4677  TIP3      OH2            13.2330689335       -6.9530055630      -38.3012471101  TIP3      4517            0.0000000000
     32266      4677  TIP3      H1             12.4525693811       -6.3813390134      -38.4820737415  TIP3      4517            0.0000000000
     32267      4677  TIP3      H2             13.9260459057       -6.4444516225      -38.7777343614  TIP3      4517            0.0000000000
     32268      4678  TIP3      OH2            13.0879179286       -8.0146300236      -41.0365156908  TIP3      4518            0.0000000000
     32269      4678  TIP3      H1             13.5612680042       -7.7616854800      -40.2220554870  TIP3      4518            0.0000000000
     32270      4678  TIP3      H2             13.7629522154       -8.5059762482      -41.5201421905  TIP3      4518            0.0000000000
     32271      4679  TIP3      OH2            20.4018221838       -7.8038973416      -30.4126285687  TIP3      4519            0.0000000000
     32272      4679  TIP3      H1             19.7798135951       -7.0478429895      -30.2865664059  TIP3      4519            0.0000000000
     32273      4679  TIP3      H2             21.2138640033       -7.3438122406      -30.7141620346  TIP3      4519            0.0000000000
     32274      4680  TIP3      OH2            16.7298785985       -7.1447008072      -37.3201767098  TIP3      4520            0.0000000000
     32275      4680  TIP3      H1             16.0681105824       -6.7744734600      -36.7114206413  TIP3      4520            0.0000000000
     32276      4680  TIP3      H2             17.4211617562       -7.4587064588      -36.6979248553  TIP3      4520            0.0000000000
     32277      4681  TIP3      OH2            16.6740889645       -8.7286546640      -28.0831978408  TIP3      4521            0.0000000000
     32278      4681  TIP3      H1             16.8119948047       -7.9465104750      -27.5171992508  TIP3      4521            0.0000000000
     32279      4681  TIP3      H2             15.8431160625       -8.4620779238      -28.5218545106  TIP3      4521            0.0000000000
     32280      4682  TIP3      OH2             8.1417436595       -6.2524230852      -35.5609475915  TIP3      4522            0.0000000000
     32281      4682  TIP3      H1              7.7444298483       -6.6319898609      -36.3778181888  TIP3      4522            0.0000000000
     32282      4682  TIP3      H2              8.7142337200       -6.9639611449      -35.1927202746  TIP3      4522            0.0000000000
     32283      4683  TIP3      OH2             9.6956887210       -2.9835028758      -32.6710880875  TIP3      4523            0.0000000000
     32284      4683  TIP3      H1              9.8816402690       -3.2992032414      -33.5667333559  TIP3      4523            0.0000000000
     32285      4683  TIP3      H2             10.3899694939       -3.4030694364      -32.1365983842  TIP3      4523            0.0000000000
     32286      4684  TIP3      OH2             8.3719252244       -7.4564043790      -31.7949512697  TIP3      4524            0.0000000000
     32287      4684  TIP3      H1              8.6844624286       -7.4426476912      -32.7277496817  TIP3      4524            0.0000000000
     32288      4684  TIP3      H2              8.8633866558       -6.7378945357      -31.3495905045  TIP3      4524            0.0000000000
     32289      4685  TIP3      OH2            15.3194384199       -1.9344765799      -30.8566852300  TIP3      4525            0.0000000000
     32290      4685  TIP3      H1             14.6720045989       -1.2698382675      -30.5612331493  TIP3      4525            0.0000000000
     32291      4685  TIP3      H2             14.9656689143       -2.7454820673      -30.4382841439  TIP3      4525            0.0000000000
     32292      4686  TIP3      OH2             9.3921796190       -3.1690325962      -27.1545648335  TIP3      4526            0.0000000000
     32293      4686  TIP3      H1              8.7465462045       -2.5899726843      -26.6758123643  TIP3      4526            0.0000000000
     32294      4686  TIP3      H2              9.0180619879       -3.1511337039      -28.0576341279  TIP3      4526            0.0000000000
     32295      4687  TIP3      OH2            16.4636067967       -7.7308357794      -39.9953576352  TIP3      4527            0.0000000000
     32296      4687  TIP3      H1             16.4647210152       -7.7471255015      -39.0054009511  TIP3      4527            0.0000000000
     32297      4687  TIP3      H2             15.8855055306       -6.9443680115      -40.1611099941  TIP3      4527            0.0000000000
     32298      4688  TIP3      OH2             6.1957100236       -6.5470926983      -28.4316901001  TIP3      4528            0.0000000000
     32299      4688  TIP3      H1              6.1130175225       -5.7753665230      -27.8455668966  TIP3      4528            0.0000000000
     32300      4688  TIP3      H2              5.4608266409       -7.0679116380      -28.0403227648  TIP3      4528            0.0000000000
     32301      4689  TIP3      OH2            12.8608792887       -0.5389800922      -36.1096384513  TIP3      4529            0.0000000000
     32302      4689  TIP3      H1             13.6697457774       -0.5597259590      -35.5708902121  TIP3      4529            0.0000000000
     32303      4689  TIP3      H2             12.7725352774        0.4080015732      -36.2946734040  TIP3      4529            0.0000000000
     32304      4690  TIP3      OH2             7.7012616600       -1.2075977213      -26.2145317023  TIP3      4530            0.0000000000
     32305      4690  TIP3      H1              7.4905735643       -0.9277145777      -27.1269207005  TIP3      4530            0.0000000000
     32306      4690  TIP3      H2              6.7973567091       -1.4402015180      -25.8958582439  TIP3      4530            0.0000000000
     32307      4691  TIP3      OH2            19.2782578377      -15.8621097681      -39.3543247758  TIP3      4531            0.0000000000
     32308      4691  TIP3      H1             18.6436469982      -15.3821163988      -39.9359297353  TIP3      4531            0.0000000000
     32309      4691  TIP3      H2             19.9995125033      -15.2098447350      -39.3922677026  TIP3      4531            0.0000000000
     32310      4692  TIP3      OH2             7.0418854990       -7.4470570081      -37.6610346873  TIP3      4532            0.0000000000
     32311      4692  TIP3      H1              6.9197943125       -6.5639867223      -38.0694055170  TIP3      4532            0.0000000000
     32312      4692  TIP3      H2              6.1769606816       -7.8213655816      -37.8926590393  TIP3      4532            0.0000000000
     32313      4693  TIP3      OH2            20.3804355765       -1.1852541359      -41.5893167697  TIP3      4533            0.0000000000
     32314      4693  TIP3      H1             20.7258286171       -0.3181885993      -41.2923969760  TIP3      4533            0.0000000000
     32315      4693  TIP3      H2             21.1640109892       -1.7535140991      -41.4513892180  TIP3      4533            0.0000000000
     32316      4694  TIP3      OH2             3.4963352310       -4.9311269177      -28.2514773089  TIP3      4534            0.0000000000
     32317      4694  TIP3      H1              3.1297540098       -4.5989079278      -29.1022955849  TIP3      4534            0.0000000000
     32318      4694  TIP3      H2              3.7789653627       -5.7969233718      -28.5760757869  TIP3      4534            0.0000000000
     32319      4695  TIP3      OH2             3.2031327093       -2.0764517856      -32.3321667540  TIP3      4535            0.0000000000
     32320      4695  TIP3      H1              4.1646049369       -2.1211265853      -32.4048954592  TIP3      4535            0.0000000000
     32321      4695  TIP3      H2              3.0868264463       -1.3692361460      -31.6724193672  TIP3      4535            0.0000000000
     32322      4696  TIP3      OH2            20.9108539085       -1.5301912247      -26.4604739064  TIP3      4536            0.0000000000
     32323      4696  TIP3      H1             20.9299015967       -2.4942521129      -26.5854255814  TIP3      4536            0.0000000000
     32324      4696  TIP3      H2             20.2333987170       -1.4596367040      -25.7661306988  TIP3      4536            0.0000000000
     32325      4697  TIP3      OH2            11.7299634619       -1.7530124859      -27.1892126837  TIP3      4537            0.0000000000
     32326      4697  TIP3      H1             11.8795512732       -0.9365052531      -26.6626710979  TIP3      4537            0.0000000000
     32327      4697  TIP3      H2             10.8038644691       -2.0058357334      -26.9785554107  TIP3      4537            0.0000000000
     32328      4698  TIP3      OH2            12.2168323888        2.0771987751      -37.7433129852  TIP3      4538            0.0000000000
     32329      4698  TIP3      H1             12.4315234963        2.0644583513      -38.6940295738  TIP3      4538            0.0000000000
     32330      4698  TIP3      H2             12.7144175674        2.8358230986      -37.3965174448  TIP3      4538            0.0000000000
     32331      4699  TIP3      OH2             6.3677465644        0.3754029425      -35.7689306934  TIP3      4539            0.0000000000
     32332      4699  TIP3      H1              6.6512078657        0.0385535834      -34.8875914694  TIP3      4539            0.0000000000
     32333      4699  TIP3      H2              5.4584724819       -0.0130546181      -35.8374463511  TIP3      4539            0.0000000000
     32334      4700  TIP3      OH2            15.9243838595        1.1586424901      -40.9817198131  TIP3      4540            0.0000000000
     32335      4700  TIP3      H1             16.5176064660        0.4189704698      -41.2485244619  TIP3      4540            0.0000000000
     32336      4700  TIP3      H2             15.9237123016        1.0751118366      -40.0155523889  TIP3      4540            0.0000000000
     32337      4701  TIP3      OH2            15.3324309326        1.3284202895      -37.9124047204  TIP3      4541            0.0000000000
     32338      4701  TIP3      H1             14.4401900829        1.0347038536      -38.1357528046  TIP3      4541            0.0000000000
     32339      4701  TIP3      H2             15.6294673284        0.6850919819      -37.2420503989  TIP3      4541            0.0000000000
     32340      4702  TIP3      OH2            17.8913434108      -10.5053149408      -25.9148592427  TIP3      4542            0.0000000000
     32341      4702  TIP3      H1             17.6261102310       -9.8118853535      -26.5508455134  TIP3      4542            0.0000000000
     32342      4702  TIP3      H2             18.4126272466      -11.0927128979      -26.4886943960  TIP3      4542            0.0000000000
     32343      4703  TIP3      OH2             5.6634320652       -3.2364165856      -27.8981067310  TIP3      4543            0.0000000000
     32344      4703  TIP3      H1              5.5640838353       -3.0222966618      -26.9478992183  TIP3      4543            0.0000000000
     32345      4703  TIP3      H2              4.8775268733       -3.8128394765      -28.0274386844  TIP3      4543            0.0000000000
     32346      4704  TIP3      OH2             8.1532520160      -14.2318890159      -32.4591168629  TIP3      4544            0.0000000000
     32347      4704  TIP3      H1              8.1233106641      -13.4050627288      -32.9586752571  TIP3      4544            0.0000000000
     32348      4704  TIP3      H2              8.7146128717      -14.0014451404      -31.6958230624  TIP3      4544            0.0000000000
     32349      4705  TIP3      OH2            12.8114243621      -15.3629032456      -28.9904766426  TIP3      4545            0.0000000000
     32350      4705  TIP3      H1             12.9615341891      -15.0932372961      -28.0505685990  TIP3      4545            0.0000000000
     32351      4705  TIP3      H2             11.8511991687      -15.1892738049      -29.0613426353  TIP3      4545            0.0000000000
     32352      4706  TIP3      OH2            16.1468161749      -11.4222939674      -28.1586214842  TIP3      4546            0.0000000000
     32353      4706  TIP3      H1             15.6725838671      -11.6108520409      -27.3203386698  TIP3      4546            0.0000000000
     32354      4706  TIP3      H2             16.3313994329      -10.4666457755      -28.0666612095  TIP3      4546            0.0000000000
     32355      4707  TIP3      OH2            17.8410406696       -6.3673217475      -42.0542934254  TIP3      4547            0.0000000000
     32356      4707  TIP3      H1             17.0157156375       -6.2937084775      -42.5677163094  TIP3      4547            0.0000000000
     32357      4707  TIP3      H2             17.4919078078       -6.8067474137      -41.2475017826  TIP3      4547            0.0000000000
     32358      4708  TIP3      OH2            12.6787914399      -12.2285990385      -41.3153328025  TIP3      4548            0.0000000000
     32359      4708  TIP3      H1             12.5718195122      -12.9314282897      -40.6474971430  TIP3      4548            0.0000000000
     32360      4708  TIP3      H2             12.4450711019      -12.7236385875      -42.1178888180  TIP3      4548            0.0000000000
     32361      4709  TIP3      OH2             8.4323414905       -9.9759679591      -30.8604647239  TIP3      4549            0.0000000000
     32362      4709  TIP3      H1              7.9837226589       -9.8622590123      -30.0018316115  TIP3      4549            0.0000000000
     32363      4709  TIP3      H2              8.4022470891       -9.0472580358      -31.2076372719  TIP3      4549            0.0000000000
     32364      4710  TIP3      OH2             8.7046545260       -9.5170040240      -36.1297751921  TIP3      4550            0.0000000000
     32365      4710  TIP3      H1              8.1041020599       -8.7496279829      -36.0684065489  TIP3      4550            0.0000000000
     32366      4710  TIP3      H2              8.9450218362       -9.4634661875      -37.0891847675  TIP3      4550            0.0000000000
     32367      4711  TIP3      OH2            13.3213593693       -9.3015993849      -36.8880942069  TIP3      4551            0.0000000000
     32368      4711  TIP3      H1             13.2532124984       -8.3702153176      -37.2247708752  TIP3      4551            0.0000000000
     32369      4711  TIP3      H2             14.0895646406       -9.5458061166      -37.4648977623  TIP3      4551            0.0000000000
     32370      4712  TIP3      OH2            12.6502561340       -8.8232633671      -25.4083629321  TIP3      4552            0.0000000000
     32371      4712  TIP3      H1             12.3484403623       -9.7425952686      -25.1995494808  TIP3      4552            0.0000000000
     32372      4712  TIP3      H2             13.5471880422       -8.8440739795      -25.0473076361  TIP3      4552            0.0000000000
     32373      4713  TIP3      OH2            14.7958386549       -9.6556509806      -34.2835913497  TIP3      4553            0.0000000000
     32374      4713  TIP3      H1             14.4986718098       -8.7340906790      -34.4245879228  TIP3      4553            0.0000000000
     32375      4713  TIP3      H2             15.2125113199       -9.8663368655      -35.1318311192  TIP3      4553            0.0000000000
     32376      4714  TIP3      OH2             5.6283155121       -9.4353990391      -29.0634824723  TIP3      4554            0.0000000000
     32377      4714  TIP3      H1              6.5032484512       -9.2427041773      -28.6637861539  TIP3      4554            0.0000000000
     32378      4714  TIP3      H2              5.0846288922       -9.6197445210      -28.2754053146  TIP3      4554            0.0000000000
     32379      4715  TIP3      OH2             9.6287359707      -11.9101001807      -41.4555960519  TIP3      4555            0.0000000000
     32380      4715  TIP3      H1             10.4396041122      -12.4261104746      -41.2612098842  TIP3      4555            0.0000000000
     32381      4715  TIP3      H2              9.9415949508      -11.4155241223      -42.2272873882  TIP3      4555            0.0000000000
     32382      4716  TIP3      OH2             2.0434629705      -12.3862734666      -35.1168638021  TIP3      4556            0.0000000000
     32383      4716  TIP3      H1              1.8089772941      -11.8614064847      -34.3386895108  TIP3      4556            0.0000000000
     32384      4716  TIP3      H2              2.1794834448      -11.6866398068      -35.7691063029  TIP3      4556            0.0000000000
     32385      4717  TIP3      OH2             3.7906357341      -11.9365473525      -39.8145920222  TIP3      4557            0.0000000000
     32386      4717  TIP3      H1              4.3711887345      -11.4541717546      -40.4430500472  TIP3      4557            0.0000000000
     32387      4717  TIP3      H2              3.1900844909      -11.1822902678      -39.5789405275  TIP3      4557            0.0000000000
     32388      4718  TIP3      OH2            14.1006182903       -8.3044780439      -29.8248896809  TIP3      4558            0.0000000000
     32389      4718  TIP3      H1             14.6157450951       -8.9949678282      -30.3156293042  TIP3      4558            0.0000000000
     32390      4718  TIP3      H2             13.5331201067       -8.8694495748      -29.2679547363  TIP3      4558            0.0000000000
     32391      4719  TIP3      OH2            10.8169985084      -12.5126030130      -34.7824073012  TIP3      4559            0.0000000000
     32392      4719  TIP3      H1             10.4705679419      -13.4202676316      -34.8886966266  TIP3      4559            0.0000000000
     32393      4719  TIP3      H2             11.0768510052      -12.4953697287      -33.8411582912  TIP3      4559            0.0000000000
     32394      4720  TIP3      OH2             4.8664864686      -11.2549472287      -36.2582975269  TIP3      4560            0.0000000000
     32395      4720  TIP3      H1              4.2379300852      -10.5811286728      -36.6238935349  TIP3      4560            0.0000000000
     32396      4720  TIP3      H2              4.4431399159      -12.0686164489      -36.5614118594  TIP3      4560            0.0000000000
     32397      4721  TIP3      OH2             9.3108141424      -10.2190658736      -38.6309373265  TIP3      4561            0.0000000000
     32398      4721  TIP3      H1             10.2180067281      -10.5721683910      -38.7114580661  TIP3      4561            0.0000000000
     32399      4721  TIP3      H2              9.0957879311       -9.8891681713      -39.5354807342  TIP3      4561            0.0000000000
     32400      4722  TIP3      OH2            15.5934706228      -13.1711268186      -31.4879371877  TIP3      4562            0.0000000000
     32401      4722  TIP3      H1             14.8390052559      -13.0060275889      -30.8906712886  TIP3      4562            0.0000000000
     32402      4722  TIP3      H2             15.2169763315      -13.6853419862      -32.2203038343  TIP3      4562            0.0000000000
     32403      4723  TIP3      OH2             8.3578900987       -9.1213493840      -41.0371158171  TIP3      4563            0.0000000000
     32404      4723  TIP3      H1              7.9825184527       -9.7616755402      -41.6617149041  TIP3      4563            0.0000000000
     32405      4723  TIP3      H2              9.2142364447       -8.9112811816      -41.4991383698  TIP3      4563            0.0000000000
     32406      4724  TIP3      OH2            18.2905602347        3.2247164624      -25.1047385356  TIP3      4564            0.0000000000
     32407      4724  TIP3      H1             18.7859950819        3.3721933095      -25.9409904529  TIP3      4564            0.0000000000
     32408      4724  TIP3      H2             18.7503888837        3.8439162896      -24.5277037713  TIP3      4564            0.0000000000
     32409      4725  TIP3      OH2             6.5939701648       -5.3787739426      -25.8504831788  TIP3      4565            0.0000000000
     32410      4725  TIP3      H1              6.9035789237       -4.9019663610      -25.0529904134  TIP3      4565            0.0000000000
     32411      4725  TIP3      H2              5.7078035369       -5.6187119545      -25.5156298282  TIP3      4565            0.0000000000
     32412      4726  TIP3      OH2            11.9743658828       -9.8587130166      -33.2904067849  TIP3      4566            0.0000000000
     32413      4726  TIP3      H1             12.8890853404       -9.5241924680      -33.2786224789  TIP3      4566            0.0000000000
     32414      4726  TIP3      H2             11.9403322417      -10.3198518008      -32.4261048336  TIP3      4566            0.0000000000
     32415      4727  TIP3      OH2             7.6760902058      -13.9698212517      -36.5840309432  TIP3      4567            0.0000000000
     32416      4727  TIP3      H1              7.0497667859      -14.6932193562      -36.3650256298  TIP3      4567            0.0000000000
     32417      4727  TIP3      H2              8.1244482098      -14.3707958117      -37.3519321343  TIP3      4567            0.0000000000
     32418      4728  TIP3      OH2            11.6429014867      -10.9928998699      -30.9106911222  TIP3      4568            0.0000000000
     32419      4728  TIP3      H1             10.8585349109      -10.4173365313      -30.9481422279  TIP3      4568            0.0000000000
     32420      4728  TIP3      H2             12.0400959031      -10.8729955871      -30.0274266067  TIP3      4568            0.0000000000
     32421      4729  TIP3      OH2            11.4573000467       -4.8864114276      -38.3637913303  TIP3      4569            0.0000000000
     32422      4729  TIP3      H1             10.7381183073       -5.1660562518      -38.9604780517  TIP3      4569            0.0000000000
     32423      4729  TIP3      H2             10.9490453460       -4.6829999666      -37.5576529323  TIP3      4569            0.0000000000
     32424      4730  TIP3      OH2            18.7950951216       -5.7229400839      -30.0444670900  TIP3      4570            0.0000000000
     32425      4730  TIP3      H1             19.1559435653       -5.1402600270      -30.7461436508  TIP3      4570            0.0000000000
     32426      4730  TIP3      H2             17.9018615921       -5.8939562559      -30.4040439504  TIP3      4570            0.0000000000
     32427      4731  TIP3      OH2            15.2046978412      -11.9969343509      -40.3800798329  TIP3      4571            0.0000000000
     32428      4731  TIP3      H1             14.5412413720      -11.8357989558      -41.0813004477  TIP3      4571            0.0000000000
     32429      4731  TIP3      H2             15.6446140071      -12.8290885776      -40.6828383760  TIP3      4571            0.0000000000
     32430      4732  TIP3      OH2            12.3728677812       -4.5755531970      -27.5553642021  TIP3      4572            0.0000000000
     32431      4732  TIP3      H1             12.9345763357       -4.5717456013      -26.7698845804  TIP3      4572            0.0000000000
     32432      4732  TIP3      H2             12.2904813584       -3.6123153314      -27.7042939317  TIP3      4572            0.0000000000
     32433      4733  TIP3      OH2            15.3592094046       -9.6652718437      -38.4925248491  TIP3      4573            0.0000000000
     32434      4733  TIP3      H1             16.1612646576      -10.1029109296      -38.1395325564  TIP3      4573            0.0000000000
     32435      4733  TIP3      H2             15.6828503235       -9.4279258348      -39.3857513123  TIP3      4573            0.0000000000
     32436      4734  TIP3      OH2             6.3796088755       -5.4549993713      -33.2375209908  TIP3      4574            0.0000000000
     32437      4734  TIP3      H1              7.0142552157       -5.6663228429      -33.9407035034  TIP3      4574            0.0000000000
     32438      4734  TIP3      H2              6.5195868329       -6.1876905164      -32.6056627440  TIP3      4574            0.0000000000
     32439      4735  TIP3      OH2            12.3952862891       -3.1713163981      -40.3798628922  TIP3      4575            0.0000000000
     32440      4735  TIP3      H1             12.7358339278       -2.7331936749      -39.5887860258  TIP3      4575            0.0000000000
     32441      4735  TIP3      H2             12.7961762711       -4.0669381273      -40.2898340225  TIP3      4575            0.0000000000
     32442      4736  TIP3      OH2             3.6744373430       -7.7767959676      -28.0755450854  TIP3      4576            0.0000000000
     32443      4736  TIP3      H1              3.3106491995       -7.9139811489      -27.1752132085  TIP3      4576            0.0000000000
     32444      4736  TIP3      H2              2.8435658246       -7.7072278567      -28.5763362554  TIP3      4576            0.0000000000
     32445      4737  TIP3      OH2            10.3587012801       -7.5286832747      -25.9108047911  TIP3      4577            0.0000000000
     32446      4737  TIP3      H1             10.0518219012       -8.4078868691      -26.2011980441  TIP3      4577            0.0000000000
     32447      4737  TIP3      H2             11.2918645757       -7.7768736837      -25.6999464201  TIP3      4577            0.0000000000
     32448      4738  TIP3      OH2            15.1386282683       -2.2864146637      -27.3582445123  TIP3      4578            0.0000000000
     32449      4738  TIP3      H1             14.4468246448       -1.8291983758      -27.8618938584  TIP3      4578            0.0000000000
     32450      4738  TIP3      H2             14.8833546665       -2.0171607808      -26.4489791833  TIP3      4578            0.0000000000
     32451      4739  TIP3      OH2            21.3278666733       -9.9327237784      -39.9932279624  TIP3      4579            0.0000000000
     32452      4739  TIP3      H1             20.4097925488      -10.2754849443      -40.0255420183  TIP3      4579            0.0000000000
     32453      4739  TIP3      H2             21.2647975353       -9.1857117876      -40.6178177320  TIP3      4579            0.0000000000
     32454      4740  TIP3      OH2            20.7431205924       -4.3408973500      -26.7511581689  TIP3      4580            0.0000000000
     32455      4740  TIP3      H1             19.8513183678       -4.2136639777      -27.1469676966  TIP3      4580            0.0000000000
     32456      4740  TIP3      H2             21.2927550664       -4.4280593714      -27.5651216051  TIP3      4580            0.0000000000
     32457      4741  TIP3      OH2            19.4525822143       -1.6191119509      -39.0476077076  TIP3      4581            0.0000000000
     32458      4741  TIP3      H1             18.6750588541       -2.1214326161      -38.7528529647  TIP3      4581            0.0000000000
     32459      4741  TIP3      H2             19.4737587504       -1.7819192284      -40.0098123333  TIP3      4581            0.0000000000
     32460      4742  TIP3      OH2            16.4099689166       -6.4766030234      -31.5663056832  TIP3      4582            0.0000000000
     32461      4742  TIP3      H1             15.4845719409       -6.5429593333      -31.8618994428  TIP3      4582            0.0000000000
     32462      4742  TIP3      H2             16.7563494833       -7.2894725173      -31.9790309337  TIP3      4582            0.0000000000
     32463      4743  TIP3      OH2             8.4312464812       -2.1136183479      -35.6424630372  TIP3      4583            0.0000000000
     32464      4743  TIP3      H1              8.4008570324       -1.1965450014      -35.3387946078  TIP3      4583            0.0000000000
     32465      4743  TIP3      H2              7.4767260990       -2.3047953798      -35.6595535096  TIP3      4583            0.0000000000
     32466      4744  TIP3      OH2             4.9695007319       -7.1683606189      -41.1551968174  TIP3      4584            0.0000000000
     32467      4744  TIP3      H1              5.4322530351       -6.6375437678      -40.4794557560  TIP3      4584            0.0000000000
     32468      4744  TIP3      H2              4.0531833453       -7.1267058330      -40.8330888226  TIP3      4584            0.0000000000
     32469      4745  TIP3      OH2            10.0531315762       -4.3529333400      -36.0207761702  TIP3      4585            0.0000000000
     32470      4745  TIP3      H1              9.3184384336       -3.7137869106      -35.9735043423  TIP3      4585            0.0000000000
     32471      4745  TIP3      H2              9.6282031885       -5.1823090535      -35.7113683534  TIP3      4585            0.0000000000
     32472      4746  TIP3      OH2            10.7851352418       -0.1108274933      -29.2575252414  TIP3      4586            0.0000000000
     32473      4746  TIP3      H1             11.5280584446        0.4912153843      -29.4317614774  TIP3      4586            0.0000000000
     32474      4746  TIP3      H2             11.1472275691       -0.6285284918      -28.5052204317  TIP3      4586            0.0000000000
     32475      4747  TIP3      OH2             8.8393011133        0.8146318558      -36.7302670193  TIP3      4587            0.0000000000
     32476      4747  TIP3      H1              7.8979307252        0.5929671397      -36.5309440886  TIP3      4587            0.0000000000
     32477      4747  TIP3      H2              8.9058565674        1.7002114362      -36.3002186646  TIP3      4587            0.0000000000
     32478      4748  TIP3      OH2            13.9153276889       -4.3717105475      -30.0160530363  TIP3      4588            0.0000000000
     32479      4748  TIP3      H1             13.5189463517       -4.6892415408      -29.1764233060  TIP3      4588            0.0000000000
     32480      4748  TIP3      H2             14.6504651413       -4.9911830241      -30.1300568468  TIP3      4588            0.0000000000
     32481      4749  TIP3      OH2            16.7225248297       -2.7421770805      -40.7262172412  TIP3      4589            0.0000000000
     32482      4749  TIP3      H1             17.0044786368       -3.2648752447      -39.9455720378  TIP3      4589            0.0000000000
     32483      4749  TIP3      H2             15.9589266925       -3.3157721674      -40.9625083424  TIP3      4589            0.0000000000
     32484      4750  TIP3      OH2            16.9077021172        0.1778234262      -27.6615350931  TIP3      4590            0.0000000000
     32485      4750  TIP3      H1             16.0715600614       -0.2979496015      -27.8264193663  TIP3      4590            0.0000000000
     32486      4750  TIP3      H2             16.9731215508        0.7767572090      -28.4405790409  TIP3      4590            0.0000000000
     32487      4751  TIP3      OH2            21.1639826104        1.4484032234      -40.8829686884  TIP3      4591            0.0000000000
     32488      4751  TIP3      H1             21.3212604832        1.8644353191      -41.7515783799  TIP3      4591            0.0000000000
     32489      4751  TIP3      H2             20.3302477705        1.8833932400      -40.5816746020  TIP3      4591            0.0000000000
     32490      4752  TIP3      OH2             4.8912414672      -12.5044387277      -28.6439725586  TIP3      4592            0.0000000000
     32491      4752  TIP3      H1              4.6713571908      -12.2304198446      -27.7344025674  TIP3      4592            0.0000000000
     32492      4752  TIP3      H2              4.3831154502      -13.3336895881      -28.7056696822  TIP3      4592            0.0000000000
     32493      4753  TIP3      OH2            17.4240860486       -4.2400526463      -38.5791200710  TIP3      4593            0.0000000000
     32494      4753  TIP3      H1             16.8143758305       -4.9697806133      -38.8399100459  TIP3      4593            0.0000000000
     32495      4753  TIP3      H2             18.2787649136       -4.6913493796      -38.5945814702  TIP3      4593            0.0000000000
     32496      4754  TIP3      OH2             4.7765091439       -0.6686826778      -29.9907986531  TIP3      4594            0.0000000000
     32497      4754  TIP3      H1              5.4658247467       -1.1739082905      -29.5284436548  TIP3      4594            0.0000000000
     32498      4754  TIP3      H2              4.0432722596       -0.5943706985      -29.3491625609  TIP3      4594            0.0000000000
     32499      4755  TIP3      OH2             9.5431589214       -2.4421962384      -40.0038403564  TIP3      4595            0.0000000000
     32500      4755  TIP3      H1             10.5024781827       -2.5196850554      -40.1814781645  TIP3      4595            0.0000000000
     32501      4755  TIP3      H2              9.3798444839       -1.4770125575      -40.0561290808  TIP3      4595            0.0000000000
     32502      4756  TIP3      OH2             6.1379358137       -5.2944698199      -39.4333299293  TIP3      4596            0.0000000000
     32503      4756  TIP3      H1              5.2083692551       -5.3241436874      -39.0791406304  TIP3      4596            0.0000000000
     32504      4756  TIP3      H2              6.1367244201       -4.4163071942      -39.8464599230  TIP3      4596            0.0000000000
     32505      4757  TIP3      OH2            13.6014357303      -12.4514092520      -29.1024121628  TIP3      4597            0.0000000000
     32506      4757  TIP3      H1             14.5027618531      -12.3514345601      -28.7488390314  TIP3      4597            0.0000000000
     32507      4757  TIP3      H2             13.3928491907      -13.3686783377      -28.8581685293  TIP3      4597            0.0000000000
     32508      4758  TIP3      OH2            14.2746388003      -12.9146411114      -37.9106688754  TIP3      4598            0.0000000000
     32509      4758  TIP3      H1             14.7299086572      -12.3827491143      -38.6022561780  TIP3      4598            0.0000000000
     32510      4758  TIP3      H2             14.8484405852      -13.7117310154      -38.0217777847  TIP3      4598            0.0000000000
     32511      4759  TIP3      OH2            12.4012815826       -0.5345778163      -39.1821948907  TIP3      4599            0.0000000000
     32512      4759  TIP3      H1             11.6103784014       -0.0509229736      -39.4686202424  TIP3      4599            0.0000000000
     32513      4759  TIP3      H2             12.9168303571       -0.6318239925      -40.0143808434  TIP3      4599            0.0000000000
     32514      4760  TIP3      OH2            11.5718840398      -11.2271957342      -37.5932954534  TIP3      4600            0.0000000000
     32515      4760  TIP3      H1             12.2580133687      -10.5240325546      -37.6021973438  TIP3      4600            0.0000000000
     32516      4760  TIP3      H2             10.9040333939      -10.8266617003      -37.0203662628  TIP3      4600            0.0000000000
     32517      4761  TIP3      OH2            12.4117237053       -9.8376502357      -28.0448700445  TIP3      4601            0.0000000000
     32518      4761  TIP3      H1             12.5979940099       -9.6445534849      -27.0937068980  TIP3      4601            0.0000000000
     32519      4761  TIP3      H2             12.6649427727      -10.7719735976      -28.1184556621  TIP3      4601            0.0000000000
     32520      4762  TIP3      OH2            12.6405575861      -14.5714476217      -36.6957683789  TIP3      4602            0.0000000000
     32521      4762  TIP3      H1             12.3743260617      -14.1631073872      -35.8507832812  TIP3      4602            0.0000000000
     32522      4762  TIP3      H2             13.3051282609      -13.9326995590      -37.0606645265  TIP3      4602            0.0000000000
     32523      4763  TIP3      OH2             9.5605413246        0.2446761792      -39.2664475279  TIP3      4603            0.0000000000
     32524      4763  TIP3      H1              9.8353085700        1.0404896977      -39.7666975287  TIP3      4603            0.0000000000
     32525      4763  TIP3      H2              9.0108998935        0.6634322059      -38.5670181514  TIP3      4603            0.0000000000
     32526      4764  TIP3      OH2             8.2457378388      -13.0747051150      -39.3053256724  TIP3      4604            0.0000000000
     32527      4764  TIP3      H1              8.6924215082      -12.4654177982      -39.9214997188  TIP3      4604            0.0000000000
     32528      4764  TIP3      H2              8.9658787858      -13.7067515635      -39.1975804531  TIP3      4604            0.0000000000
     32529      4765  TIP3      OH2            18.7199566283      -12.7269637046      -27.3026912086  TIP3      4605            0.0000000000
     32530      4765  TIP3      H1             17.7449160878      -12.8240772149      -27.3037337806  TIP3      4605            0.0000000000
     32531      4765  TIP3      H2             18.8937706319      -12.7202804484      -28.2625635600  TIP3      4605            0.0000000000
     32532      4766  TIP3      OH2            17.1597312435       -8.6537761196      -33.1947827623  TIP3      4606            0.0000000000
     32533      4766  TIP3      H1             16.3695663202       -9.2213675684      -33.1928916247  TIP3      4606            0.0000000000
     32534      4766  TIP3      H2             17.8249579956       -9.2271274362      -32.7428167461  TIP3      4606            0.0000000000
     32535      4767  TIP3      OH2             6.5751210392       -2.8135771538      -40.9401812022  TIP3      4607            0.0000000000
     32536      4767  TIP3      H1              7.3425720310       -2.4896061717      -40.4503989924  TIP3      4607            0.0000000000
     32537      4767  TIP3      H2              7.0074471165       -3.4895212528      -41.4987250534  TIP3      4607            0.0000000000
     32538      4768  TIP3      OH2             5.0062576862      -10.0987026169      -41.6642500035  TIP3      4608            0.0000000000
     32539      4768  TIP3      H1              5.5177577102       -9.3018292557      -41.4566420473  TIP3      4608            0.0000000000
     32540      4768  TIP3      H2              4.1457532317       -9.6958403886      -41.8823481224  TIP3      4608            0.0000000000
     32541      4769  TIP3      OH2            17.9301240815        0.5200205067      -31.8602848445  TIP3      4609            0.0000000000
     32542      4769  TIP3      H1             17.6693204526        1.1456637404      -32.5582571342  TIP3      4609            0.0000000000
     32543      4769  TIP3      H2             18.9029757978        0.6966689895      -31.8593949573  TIP3      4609            0.0000000000
     32544      4770  TIP3      OH2             5.2007653281      -15.2195911735      -33.3224900509  TIP3      4610            0.0000000000
     32545      4770  TIP3      H1              5.9162471567      -15.6076855262      -33.8615627874  TIP3      4610            0.0000000000
     32546      4770  TIP3      H2              4.9121693304      -16.0689853634      -32.9156132190  TIP3      4610            0.0000000000
     32547      4771  TIP3      OH2             4.1702099508       -0.9195987459      -36.3930071747  TIP3      4611            0.0000000000
     32548      4771  TIP3      H1              4.1460263430       -0.3722508990      -37.2199930470  TIP3      4611            0.0000000000
     32549      4771  TIP3      H2              4.1406753556       -1.7844863025      -36.8670492763  TIP3      4611            0.0000000000
     32550      4772  TIP3      OH2             3.7264565319        1.7894796941      -25.5733899824  TIP3      4612            0.0000000000
     32551      4772  TIP3      H1              4.5051779943        1.3672128553      -25.1380817889  TIP3      4612            0.0000000000
     32552      4772  TIP3      H2              3.1536077458        0.9929565904      -25.7041668879  TIP3      4612            0.0000000000
     32553      4773  TIP3      OH2             8.6337150279       -0.1643590308      -23.6549660091  TIP3      4613            0.0000000000
     32554      4773  TIP3      H1              9.4849210062       -0.6383923402      -23.4983773731  TIP3      4613            0.0000000000
     32555      4773  TIP3      H2              8.3968716230       -0.4683072117      -24.5553207427  TIP3      4613            0.0000000000
     32556      4774  TIP3      OH2            13.2365236742       -0.2569889513      -41.6283395165  TIP3      4614            0.0000000000
     32557      4774  TIP3      H1             12.6816907350       -0.9848156954      -41.9833220961  TIP3      4614            0.0000000000
     32558      4774  TIP3      H2             14.0481158577       -0.3630814035      -42.1473144194  TIP3      4614            0.0000000000
     32559      4775  TIP3      OH2            14.7645288304       -1.3311442415      -24.9384787077  TIP3      4615            0.0000000000
     32560      4775  TIP3      H1             14.3904341849       -2.2037862537      -24.6184661324  TIP3      4615            0.0000000000
     32561      4775  TIP3      H2             15.6766176330       -1.3977474514      -24.6498032676  TIP3      4615            0.0000000000
     32562      4776  TIP3      OH2            17.6704114206       -0.6230524784      -42.1731459315  TIP3      4616            0.0000000000
     32563      4776  TIP3      H1             17.3208873383       -1.4076870259      -41.6858140493  TIP3      4616            0.0000000000
     32564      4776  TIP3      H2             18.6278942225       -0.7584069728      -42.0024208480  TIP3      4616            0.0000000000
     32565      4777  TIP3      OH2             4.7617004115       -4.8029221257      -23.7898108968  TIP3      4617            0.0000000000
     32566      4777  TIP3      H1              4.6408701356       -5.5973889914      -23.2326580478  TIP3      4617            0.0000000000
     32567      4777  TIP3      H2              3.8873415904       -4.7620153919      -24.2550700367  TIP3      4617            0.0000000000
     32568      4778  TIP3      OH2             8.3018814867       -5.0061796062      -41.9097647441  TIP3      4618            0.0000000000
     32569      4778  TIP3      H1              8.5899281697       -5.4795528086      -41.0917718414  TIP3      4618            0.0000000000
     32570      4778  TIP3      H2              8.8635306640       -5.4442757309      -42.5877479340  TIP3      4618            0.0000000000
     32571      4779  TIP3      OH2            10.4097516560       -4.9303544847      -25.2708585327  TIP3      4619            0.0000000000
     32572      4779  TIP3      H1             10.6102627369       -4.3484448441      -26.0347629756  TIP3      4619            0.0000000000
     32573      4779  TIP3      H2             10.7294858541       -5.8140390969      -25.5832821882  TIP3      4619            0.0000000000
     32574      4780  TIP3      OH2            15.9741645179       -5.0784759768      -27.2478654343  TIP3      4620            0.0000000000
     32575      4780  TIP3      H1             16.8935740169       -4.7481330507      -27.3450271026  TIP3      4620            0.0000000000
     32576      4780  TIP3      H2             15.5078043376       -4.2394246851      -27.3964302489  TIP3      4620            0.0000000000
     32577      4781  TIP3      OH2             4.8127067576       -7.7942669958      -25.0209633911  TIP3      4621            0.0000000000
     32578      4781  TIP3      H1              4.7410208428       -8.7332671169      -24.8255965634  TIP3      4621            0.0000000000
     32579      4781  TIP3      H2              5.0819280746       -7.4127606398      -24.1703108439  TIP3      4621            0.0000000000
     32580      4782  TIP3      OH2             9.3522523812       -6.3596637808      -39.8926773866  TIP3      4622            0.0000000000
     32581      4782  TIP3      H1              8.6087159444       -6.8893201329      -39.5603208182  TIP3      4622            0.0000000000
     32582      4782  TIP3      H2              9.7804553285       -6.9924671723      -40.4877445098  TIP3      4622            0.0000000000
     32583      4783  TIP3      OH2             8.1071903807       -8.6827115234      -28.5449871146  TIP3      4623            0.0000000000
     32584      4783  TIP3      H1              7.7322294688       -7.9157074669      -29.0165742266  TIP3      4623            0.0000000000
     32585      4783  TIP3      H2              9.0587333040       -8.5394900938      -28.7110086894  TIP3      4623            0.0000000000
     32586      4784  TIP3      OH2            10.7272726055       -8.3432163633      -42.1131760140  TIP3      4624            0.0000000000
     32587      4784  TIP3      H1             10.9153353716       -7.8258666756      -42.9176424605  TIP3      4624            0.0000000000
     32588      4784  TIP3      H2             11.5956069337       -8.2551269312      -41.6340670709  TIP3      4624            0.0000000000
     32589      4785  TIP3      OH2            13.7827685633       -6.0976935996      -24.0441925784  TIP3      4625            0.0000000000
     32590      4785  TIP3      H1             14.4295943071       -6.5561367532      -24.5977763517  TIP3      4625            0.0000000000
     32591      4785  TIP3      H2             13.2727201792       -6.8161748851      -23.6424715291  TIP3      4625            0.0000000000
     32592      4786  TIP3      OH2            20.1391266677       -5.4846855984       41.7953733763  TIP3      4626            0.0000000000
     32593      4786  TIP3      H1             19.1937376041       -5.6394426702       42.0261650632  TIP3      4626            0.0000000000
     32594      4786  TIP3      H2             20.4715692914       -5.0857559775       42.6074040381  TIP3      4626            0.0000000000
     32595      4787  TIP3      OH2             9.4936371637      -10.7547400259      -27.0301024058  TIP3      4627            0.0000000000
     32596      4787  TIP3      H1              9.4041689809      -11.6766667058      -27.3559436016  TIP3      4627            0.0000000000
     32597      4787  TIP3      H2             10.0356196843      -10.4021500986      -27.7475960736  TIP3      4627            0.0000000000
     32598      4788  TIP3      OH2             9.5746245758      -12.5895463659      -28.9273832116  TIP3      4628            0.0000000000
     32599      4788  TIP3      H1             10.2892295564      -12.2233479733      -29.4668736037  TIP3      4628            0.0000000000
     32600      4788  TIP3      H2              8.8020758008      -12.5122956122      -29.5190034324  TIP3      4628            0.0000000000
     32601      4789  TIP3      OH2            10.5783080434       -7.2787280937      -28.8096880219  TIP3      4629            0.0000000000
     32602      4789  TIP3      H1             11.5330655692       -7.1952124082      -28.9467343411  TIP3      4629            0.0000000000
     32603      4789  TIP3      H2             10.2173408282       -6.5616750907      -29.3726172192  TIP3      4629            0.0000000000
     32604      4790  TIP3      OH2            15.0563944060       -9.7864294210      -23.6676770843  TIP3      4630            0.0000000000
     32605      4790  TIP3      H1             14.8865631832      -10.5391504277      -24.2751876372  TIP3      4630            0.0000000000
     32606      4790  TIP3      H2             15.9922388166       -9.5844266420      -23.8534236813  TIP3      4630            0.0000000000
     32607      4791  TIP3      OH2            16.8785360083       -7.1479949833      -25.6004549028  TIP3      4631            0.0000000000
     32608      4791  TIP3      H1             16.4200572311       -6.4097666857      -26.0464040478  TIP3      4631            0.0000000000
     32609      4791  TIP3      H2             17.8150184496       -7.0137110960      -25.8736651879  TIP3      4631            0.0000000000
     32610      4792  TIP3      OH2             7.4688073084      -10.4234528663      -24.7027052371  TIP3      4632            0.0000000000
     32611      4792  TIP3      H1              6.6714310355      -10.9799241645      -24.8057250817  TIP3      4632            0.0000000000
     32612      4792  TIP3      H2              7.9719078150      -10.6365322520      -25.5151511520  TIP3      4632            0.0000000000
     32613      4793  TIP3      OH2            10.2451990344      -15.0848455412      -29.4758638343  TIP3      4633            0.0000000000
     32614      4793  TIP3      H1              9.8813335938      -14.3266351151      -28.9666696037  TIP3      4633            0.0000000000
     32615      4793  TIP3      H2              9.9305373480      -15.8180052661      -28.9178145612  TIP3      4633            0.0000000000
     32616      4794  TIP3      OH2            11.4673072669      -11.2449745602      -24.8348574504  TIP3      4634            0.0000000000
     32617      4794  TIP3      H1             10.7801943491      -11.4565752971      -24.1829820038  TIP3      4634            0.0000000000
     32618      4794  TIP3      H2             11.2541555845      -11.9171847985      -25.4938221432  TIP3      4634            0.0000000000
     32619      4795  TIP3      OH2            14.6320179964      -11.6850355548      -25.7512481162  TIP3      4635            0.0000000000
     32620      4795  TIP3      H1             13.9613907087      -12.4040296195      -25.8569195513  TIP3      4635            0.0000000000
     32621      4795  TIP3      H2             15.3174957062      -12.2059141213      -25.2678575653  TIP3      4635            0.0000000000
     32622      4796  TIP3      OH2            16.0150481894      -13.3872968922      -24.3165710905  TIP3      4636            0.0000000000
     32623      4796  TIP3      H1             15.8453801315      -14.3547328066      -24.4681136126  TIP3      4636            0.0000000000
     32624      4796  TIP3      H2             15.7809473870      -13.2836255919      -23.3896295866  TIP3      4636            0.0000000000
     32625      4797  TIP3      OH2             5.5857270578      -12.5027733547      -24.3601704959  TIP3      4637            0.0000000000
     32626      4797  TIP3      H1              5.9025939744      -13.0021247434      -25.1330391737  TIP3      4637            0.0000000000
     32627      4797  TIP3      H2              5.7414525018      -13.1429060182      -23.6443988935  TIP3      4637            0.0000000000
     32628      4798  TIP3      OH2            10.2067593650      -15.9516123300      -25.9384768375  TIP3      4638            0.0000000000
     32629      4798  TIP3      H1             10.1294104862      -16.9185894118      -25.8436089936  TIP3      4638            0.0000000000
     32630      4798  TIP3      H2             11.1696386238      -15.7998747788      -25.8368035685  TIP3      4638            0.0000000000
     32631      4799  TIP3      OH2            10.2476758838      -14.8359637660      -23.5361727404  TIP3      4639            0.0000000000
     32632      4799  TIP3      H1             10.2002312708      -15.1692998885      -24.4527838100  TIP3      4639            0.0000000000
     32633      4799  TIP3      H2              9.7981607235      -13.9734116714      -23.6412439932  TIP3      4639            0.0000000000
     32634      4800  TIP3      OH2            10.2262436064        2.3996762019      -40.7150558894  TIP3      4640            0.0000000000
     32635      4800  TIP3      H1             10.5892688890        2.3037605940      -41.6209428454  TIP3      4640            0.0000000000
     32636      4800  TIP3      H2              9.2759638470        2.4768824149      -40.9053452164  TIP3      4640            0.0000000000
     32637      4801  TIP3      OH2             3.6600877754       -3.1672253811      -41.0139988759  TIP3      4641            0.0000000000
     32638      4801  TIP3      H1              4.5102711594       -2.7734162056      -40.7695851046  TIP3      4641            0.0000000000
     32639      4801  TIP3      H2              3.9140707287       -3.5269234988      -41.8771944094  TIP3      4641            0.0000000000
     32640      4802  TIP3      OH2             2.8610702581        2.2856211255      -36.2250047928  TIP3      4642            0.0000000000
     32641      4802  TIP3      H1              2.1966217611        1.7892094678      -36.7444538780  TIP3      4642            0.0000000000
     32642      4802  TIP3      H2              2.9421044924        1.6922456148      -35.4416448397  TIP3      4642            0.0000000000
     32643      4803  TIP3      OH2             3.2703623970        0.6600729137      -34.1805602515  TIP3      4643            0.0000000000
     32644      4803  TIP3      H1              2.8388852015        0.2497398666      -33.4027820051  TIP3      4643            0.0000000000
     32645      4803  TIP3      H2              3.8791688293        1.2541833451      -33.7123301231  TIP3      4643            0.0000000000
     32646      4804  TIP3      OH2            20.6900210933        0.9556354110      -31.8913461390  TIP3      4644            0.0000000000
     32647      4804  TIP3      H1             21.1854889345        0.3134391679      -31.3574596873  TIP3      4644            0.0000000000
     32648      4804  TIP3      H2             21.3259178384        1.0737390963      -32.6245355279  TIP3      4644            0.0000000000
     32649      4805  TIP3      OH2            20.4325411152        0.3543690043      -28.3582376753  TIP3      4645            0.0000000000
     32650      4805  TIP3      H1             19.8958033440       -0.2883653358      -28.8758168983  TIP3      4645            0.0000000000
     32651      4805  TIP3      H2             20.7816205169       -0.3013813582      -27.7124869930  TIP3      4645            0.0000000000
     32652      4806  TIP3      OH2            19.0109694628       -3.2567568440      -23.2834720565  TIP3      4646            0.0000000000
     32653      4806  TIP3      H1             18.2801980416       -3.8961631524      -23.3452562087  TIP3      4646            0.0000000000
     32654      4806  TIP3      H2             19.4180648048       -3.5587608033      -22.4642114161  TIP3      4646            0.0000000000
     32655      4807  TIP3      OH2            20.4958030514       -5.4434683474      -38.6557445099  TIP3      4647            0.0000000000
     32656      4807  TIP3      H1             21.1794497785       -4.7517278746      -38.5152876975  TIP3      4647            0.0000000000
     32657      4807  TIP3      H2             20.5120009443       -5.9540201761      -37.8153957320  TIP3      4647            0.0000000000
     32658      4808  TIP3      OH2            20.6425526225       -6.7861213767      -36.2590023998  TIP3      4648            0.0000000000
     32659      4808  TIP3      H1             19.8630159232       -7.2757410621      -35.8946372495  TIP3      4648            0.0000000000
     32660      4808  TIP3      H2             21.2973555473       -6.8853327787      -35.5420521948  TIP3      4648            0.0000000000
     32661      4809  TIP3      OH2            20.1513004737       -4.4162889943      -31.9043579450  TIP3      4649            0.0000000000
     32662      4809  TIP3      H1             20.7802719445       -5.1630722102      -31.9014520690  TIP3      4649            0.0000000000
     32663      4809  TIP3      H2             20.7198461225       -3.6726245228      -31.6396288147  TIP3      4649            0.0000000000
     32664      4810  TIP3      OH2            18.8927106399       -1.5707766507      -29.3004920223  TIP3      4650            0.0000000000
     32665      4810  TIP3      H1             18.1534684829       -1.3061962970      -28.7233458149  TIP3      4650            0.0000000000
     32666      4810  TIP3      H2             18.4374440349       -1.6941262165      -30.1594164536  TIP3      4650            0.0000000000
     32667      4811  TIP3      OH2            20.9025930951       -7.0982174178      -40.6796019640  TIP3      4651            0.0000000000
     32668      4811  TIP3      H1             19.9527252658       -7.2426799242      -40.8503944256  TIP3      4651            0.0000000000
     32669      4811  TIP3      H2             20.8408676665       -6.5477569431      -39.8581499828  TIP3      4651            0.0000000000
     32670      4812  TIP3      OH2            18.4001177970      -10.2485331135      -41.1875090323  TIP3      4652            0.0000000000
     32671      4812  TIP3      H1             18.9873619808       -9.8534357887      -41.8529647378  TIP3      4652            0.0000000000
     32672      4812  TIP3      H2             18.4015477605      -11.1960020201      -41.4685493167  TIP3      4652            0.0000000000
     32673      4813  TIP3      OH2            18.5205077356       -8.1281225353      -35.5738050693  TIP3      4653            0.0000000000
     32674      4813  TIP3      H1             18.2350239810       -8.9392158152      -36.0454051573  TIP3      4653            0.0000000000
     32675      4813  TIP3      H2             18.2307418810       -8.3318286346      -34.6646790035  TIP3      4653            0.0000000000
     32676      4814  TIP3      OH2             3.3597828441       -6.8939746651      -31.7562815552  TIP3      4654            0.0000000000
     32677      4814  TIP3      H1              3.2622701866       -6.7944286092      -32.7350150396  TIP3      4654            0.0000000000
     32678      4814  TIP3      H2              4.3326311511       -7.0792848056      -31.6827159417  TIP3      4654            0.0000000000
     32679      4815  TIP3      OH2            19.4438003694       -6.7833305461      -26.3787169835  TIP3      4655            0.0000000000
     32680      4815  TIP3      H1             19.8311078618       -7.6021452577      -25.9716546278  TIP3      4655            0.0000000000
     32681      4815  TIP3      H2             20.2326242810       -6.2887764134      -26.6559199743  TIP3      4655            0.0000000000
     32682      4816  TIP3      OH2            20.2290848174       -9.1432629447      -25.4087300784  TIP3      4656            0.0000000000
     32683      4816  TIP3      H1             19.4770434702       -9.6213485935      -25.0105703880  TIP3      4656            0.0000000000
     32684      4816  TIP3      H2             20.9088755008       -9.8476740581      -25.4182040635  TIP3      4656            0.0000000000
     32685      4817  TIP3      OH2            18.9715923829      -12.3831181379      -42.7657895987  TIP3      4657            0.0000000000
     32686      4817  TIP3      H1             19.5893317624      -12.8316910179      -42.1413107921  TIP3      4657            0.0000000000
     32687      4817  TIP3      H2             18.2516485400      -13.0482591382      -42.7792947225  TIP3      4657            0.0000000000
     32688      4818  TIP3      OH2            17.8020974831      -10.1887252258      -37.2929808824  TIP3      4658            0.0000000000
     32689      4818  TIP3      H1             18.5795327868      -10.7778866558      -37.0929769560  TIP3      4658            0.0000000000
     32690      4818  TIP3      H2             18.1120840463       -9.9405317003      -38.1807217391  TIP3      4658            0.0000000000
     32691      4819  TIP3      OH2            18.5408773891      -10.4728613747      -31.8498695744  TIP3      4659            0.0000000000
     32692      4819  TIP3      H1             19.3766977809      -10.9982243118      -31.8897355815  TIP3      4659            0.0000000000
     32693      4819  TIP3      H2             18.5606559279      -10.2318274762      -30.8983722867  TIP3      4659            0.0000000000
     32694      4820  TIP3      OH2            18.9764555698       -9.7984610654      -29.4023437657  TIP3      4660            0.0000000000
     32695      4820  TIP3      H1             18.1366104773       -9.4115379473      -29.0669029265  TIP3      4660            0.0000000000
     32696      4820  TIP3      H2             19.4915657745       -9.0043847077      -29.6790678032  TIP3      4660            0.0000000000
     32697      4821  TIP3      OH2             3.6458674250      -11.3285873901      -25.8527754516  TIP3      4661            0.0000000000
     32698      4821  TIP3      H1              4.3979059597      -11.6231194013      -25.2965080924  TIP3      4661            0.0000000000
     32699      4821  TIP3      H2              2.9922377782      -12.0451358709      -25.6431078258  TIP3      4661            0.0000000000
     32700      4822  TIP3      OH2            21.2461608386      -16.0770667046      -23.9432419338  TIP3      4662            0.0000000000
     32701      4822  TIP3      H1             21.7165672138      -16.6035528790      -24.6175751519  TIP3      4662            0.0000000000
     32702      4822  TIP3      H2             20.9231856507      -15.3270810484      -24.4815089869  TIP3      4662            0.0000000000
     32703      4823  TIP3      OH2            18.6417113849      -14.3932665200      -37.1121471391  TIP3      4663            0.0000000000
     32704      4823  TIP3      H1             18.8318365326      -13.5290813548      -37.5273335681  TIP3      4663            0.0000000000
     32705      4823  TIP3      H2             17.8996817130      -14.7238541424      -37.6465370731  TIP3      4663            0.0000000000
     32706      4824  TIP3      OH2             4.4173779185      -12.7739758660      -32.3255285461  TIP3      4664            0.0000000000
     32707      4824  TIP3      H1              4.4443746105      -13.6585439131      -32.7309060182  TIP3      4664            0.0000000000
     32708      4824  TIP3      H2              5.0942376802      -12.2752432335      -32.8010250678  TIP3      4664            0.0000000000
     32709      4825  TIP3      OH2             2.4622594400       -9.7905656314      -32.2429063804  TIP3      4665            0.0000000000
     32710      4825  TIP3      H1              3.1690264730       -9.8232883675      -32.9310512151  TIP3      4665            0.0000000000
     32711      4825  TIP3      H2              2.2760473632       -8.8346510002      -32.2751850267  TIP3      4665            0.0000000000
     32712      4826  TIP3      OH2            20.2469644116      -13.8930342032      -25.3320987416  TIP3      4666            0.0000000000
     32713      4826  TIP3      H1             19.5962134014      -13.3140916356      -25.7877545752  TIP3      4666            0.0000000000
     32714      4826  TIP3      H2             20.5028974266      -14.3972667871      -26.1347610024  TIP3      4666            0.0000000000
     32715      4827  TIP3      OH2            20.8273088640      -13.4115185783      -40.8927243525  TIP3      4667            0.0000000000
     32716      4827  TIP3      H1             21.5648680188      -13.6600462446      -41.4785199861  TIP3      4667            0.0000000000
     32717      4827  TIP3      H2             21.3078630975      -12.9179058088      -40.2103087378  TIP3      4667            0.0000000000
     32718      4828  TIP3      OH2             2.9267942050      -13.7925878082      -37.7947697831  TIP3      4668            0.0000000000
     32719      4828  TIP3      H1              1.9698935501      -13.9626155021      -37.6495273465  TIP3      4668            0.0000000000
     32720      4828  TIP3      H2              2.8976364531      -13.4060944109      -38.6956510882  TIP3      4668            0.0000000000
     32721      4829  TIP3      OH2            17.8163497070        1.1592160087      -35.5627527032  TIP3      4669            0.0000000000
     32722      4829  TIP3      H1             18.4760271280        0.9184236965      -36.2502064004  TIP3      4669            0.0000000000
     32723      4829  TIP3      H2             18.2648599364        1.8780130996      -35.0835702859  TIP3      4669            0.0000000000
     32724      4830  TIP3      OH2             2.8095620075      -14.5387405954      -29.5252848942  TIP3      4670            0.0000000000
     32725      4830  TIP3      H1              1.9786367255      -14.9474164573      -29.8038408850  TIP3      4670            0.0000000000
     32726      4830  TIP3      H2              2.8985458460      -13.9573241452      -30.3026022865  TIP3      4670            0.0000000000
     32727      4831  TIP3      OH2             5.2764667184       -1.9549643460      -25.4391915544  TIP3      4671            0.0000000000
     32728      4831  TIP3      H1              4.4880545879       -1.4149973866      -25.6745359327  TIP3      4671            0.0000000000
     32729      4831  TIP3      H2              5.0191296962       -2.2212365472      -24.5455574052  TIP3      4671            0.0000000000
     32730      4832  TIP3      OH2             8.0967355148       -0.5496009083      -28.8388009267  TIP3      4672            0.0000000000
     32731      4832  TIP3      H1              7.9810474515        0.4101770927      -29.0413145557  TIP3      4672            0.0000000000
     32732      4832  TIP3      H2              9.0720328102       -0.5908410162      -28.8754534501  TIP3      4672            0.0000000000
     32733      4833  TIP3      OH2            12.3012261267        0.7153152777      -26.0489932801  TIP3      4673            0.0000000000
     32734      4833  TIP3      H1             12.4359546517        0.4373156434      -25.1177642434  TIP3      4673            0.0000000000
     32735      4833  TIP3      H2             13.1551381471        1.1580614179      -26.2607147891  TIP3      4673            0.0000000000
     32736      4834  TIP3      OH2            14.4059091584        2.2629541015      -26.6659402371  TIP3      4674            0.0000000000
     32737      4834  TIP3      H1             15.1238889868        1.8173190143      -27.1467876908  TIP3      4674            0.0000000000
     32738      4834  TIP3      H2             14.8384277382        2.5831563329      -25.8538042410  TIP3      4674            0.0000000000
     32739      4835  TIP3      OH2            20.2175355392      -15.7864659984      -27.2296829441  TIP3      4675            0.0000000000
     32740      4835  TIP3      H1             19.5423190300      -15.5481320964      -27.8913914197  TIP3      4675            0.0000000000
     32741      4835  TIP3      H2             20.2995656381      -16.7455433863      -27.4080802682  TIP3      4675            0.0000000000
     32742      4836  TIP3      OH2             5.1002275058        2.5735769701      -29.2966279623  TIP3      4676            0.0000000000
     32743      4836  TIP3      H1              4.3844193191        2.0159279784      -29.6557353654  TIP3      4676            0.0000000000
     32744      4836  TIP3      H2              5.0021601114        2.4348463410      -28.3408032562  TIP3      4676            0.0000000000
     32745      4837  TIP3      OH2             7.8646479962        1.9821856165      -29.8380964095  TIP3      4677            0.0000000000
     32746      4837  TIP3      H1              6.8955523994        2.1453224943      -29.7873443825  TIP3      4677            0.0000000000
     32747      4837  TIP3      H2              8.0113046195        1.9235203882      -30.7859823343  TIP3      4677            0.0000000000
     32748      4838  TIP3      OH2            12.5972889128        1.8981047202      -30.7253865902  TIP3      4678            0.0000000000
     32749      4838  TIP3      H1             11.7832219594        2.3188753449      -31.0287551912  TIP3      4678            0.0000000000
     32750      4838  TIP3      H2             12.8464189009        2.4633358000      -29.9582490363  TIP3      4678            0.0000000000
     32751      4839  TIP3      OH2            14.5497860988        0.4619877496      -29.4346429336  TIP3      4679            0.0000000000
     32752      4839  TIP3      H1             13.9502342217        0.9545232414      -30.0330269763  TIP3      4679            0.0000000000
     32753      4839  TIP3      H2             15.3592147565        0.9970250225      -29.5678502506  TIP3      4679            0.0000000000
     32754      4840  TIP3      OH2            17.1522738628        1.8952074869      -29.6448261647  TIP3      4680            0.0000000000
     32755      4840  TIP3      H1             17.8697564254        2.5572853968      -29.6749955455  TIP3      4680            0.0000000000
     32756      4840  TIP3      H2             17.2966370774        1.5034981157      -30.5337837291  TIP3      4680            0.0000000000
     32757      4841  TIP3      OH2             5.2458828079        0.9141355022      -32.2680972719  TIP3      4681            0.0000000000
     32758      4841  TIP3      H1              5.0579788977        0.2271956930      -31.5880855620  TIP3      4681            0.0000000000
     32759      4841  TIP3      H2              6.0161451902        0.5294127992      -32.7353266646  TIP3      4681            0.0000000000
     32760      4842  TIP3      OH2             7.5545214528       -0.2752014260      -33.4922851618  TIP3      4682            0.0000000000
     32761      4842  TIP3      H1              7.3738986620       -1.1725540674      -33.1207639951  TIP3      4682            0.0000000000
     32762      4842  TIP3      H2              8.3303762535       -0.0024481219      -32.9592130144  TIP3      4682            0.0000000000
     32763      4843  TIP3      OH2             9.8393772452        0.1766728754      -32.0913339309  TIP3      4683            0.0000000000
     32764      4843  TIP3      H1             10.4883294477       -0.5369817114      -32.2257653680  TIP3      4683            0.0000000000
     32765      4843  TIP3      H2              9.9470952530        0.3340944731      -31.1335427718  TIP3      4683            0.0000000000
     32766      4844  TIP3      OH2            12.9445701678      -14.3937793647      -33.6606743227  TIP3      4684            0.0000000000
     32767      4844  TIP3      H1             12.1437901352      -14.8968195460      -33.4190763279  TIP3      4684            0.0000000000
     32768      4844  TIP3      H2             13.6089710052      -15.0964499542      -33.5583383625  TIP3      4684            0.0000000000
     32769      4845  TIP3      OH2            18.6684940483      -16.1043443238      -33.3333212314  TIP3      4685            0.0000000000
     32770      4845  TIP3      H1             19.1799425480      -15.5371991434      -33.9667831857  TIP3      4685            0.0000000000
     32771      4845  TIP3      H2             17.7553571910      -15.7637882515      -33.4846232433  TIP3      4685            0.0000000000
     32772      4846  TIP3      OH2            20.2045975981      -14.9702446668      -35.0668192324  TIP3      4686            0.0000000000
     32773      4846  TIP3      H1             20.1007721765      -15.2297104046      -36.0113210934  TIP3      4686            0.0000000000
     32774      4846  TIP3      H2             20.4815640994      -14.0329302924      -35.1806795076  TIP3      4686            0.0000000000
     32775      4847  TIP3      OH2             5.8895661015      -15.8798251592      -36.0321843998  TIP3      4687            0.0000000000
     32776      4847  TIP3      H1              5.4822191413      -16.0337750600      -36.8968963506  TIP3      4687            0.0000000000
     32777      4847  TIP3      H2              6.1484109322      -16.8255489139      -35.8429333546  TIP3      4687            0.0000000000
     32778      4848  TIP3      OH2             3.8272941714      -15.8451373643      -39.9879391173  TIP3      4688            0.0000000000
     32779      4848  TIP3      H1              4.3051058977      -15.1484999211      -40.4909540756  TIP3      4688            0.0000000000
     32780      4848  TIP3      H2              3.2419392043      -15.2934951537      -39.4562800576  TIP3      4688            0.0000000000
     32781      4849  TIP3      OH2            10.2439399286      -15.2727866052      -35.4722373428  TIP3      4689            0.0000000000
     32782      4849  TIP3      H1             10.7995384640      -15.9459911597      -35.9115551946  TIP3      4689            0.0000000000
     32783      4849  TIP3      H2             10.4758968942      -15.3905421302      -34.5384279475  TIP3      4689            0.0000000000
     32784      4850  TIP3      OH2            16.1514924608      -15.4936981760      -34.1102541922  TIP3      4690            0.0000000000
     32785      4850  TIP3      H1             15.9175295051      -15.3770990126      -35.0372239908  TIP3      4690            0.0000000000
     32786      4850  TIP3      H2             15.5936358107      -16.2927438310      -33.9152906176  TIP3      4690            0.0000000000
     32787      4851  TIP3      OH2            15.8130298100      -15.0839475949      -38.4546188204  TIP3      4691            0.0000000000
     32788      4851  TIP3      H1             16.3393394181      -14.9997544830      -39.2889542457  TIP3      4691            0.0000000000
     32789      4851  TIP3      H2             15.7692119473      -16.0620430756      -38.3575846036  TIP3      4691            0.0000000000
     32790      4852  TIP3      OH2             3.8348688415        0.1994611047      -38.7245070824  TIP3      4692            0.0000000000
     32791      4852  TIP3      H1              3.1271506116        0.1646633498      -39.3933257524  TIP3      4692            0.0000000000
     32792      4852  TIP3      H2              4.1339504556        1.1041754148      -38.9213505475  TIP3      4692            0.0000000000
     32793      4853  TIP3      OH2             5.7303536423      -14.3520577648      -41.2429239264  TIP3      4693            0.0000000000
     32794      4853  TIP3      H1              6.4852025131      -14.3038414812      -41.8492897851  TIP3      4693            0.0000000000
     32795      4853  TIP3      H2              5.8994869910      -13.5772986524      -40.6854580676  TIP3      4693            0.0000000000
     32796      4854  TIP3      OH2            11.2462348166      -13.5370403138      -39.2465445106  TIP3      4694            0.0000000000
     32797      4854  TIP3      H1             11.6472526900      -14.0108513113      -38.4974914444  TIP3      4694            0.0000000000
     32798      4854  TIP3      H2             11.4563837532      -12.6259124942      -38.9439648406  TIP3      4694            0.0000000000
     32799      4855  TIP3      OH2            13.3906510186        2.1327430702      -40.4316617719  TIP3      4695            0.0000000000
     32800      4855  TIP3      H1             14.2508236858        2.0234897094      -40.8950391236  TIP3      4695            0.0000000000
     32801      4855  TIP3      H2             13.0227921352        1.3011038602      -40.7930001321  TIP3      4695            0.0000000000
     32802      4856  TIP3      OH2            19.4721164365        0.5440154937      -37.5880865795  TIP3      4696            0.0000000000
     32803      4856  TIP3      H1             19.4991032376       -0.2496484498      -38.1784630244  TIP3      4696            0.0000000000
     32804      4856  TIP3      H2             19.4576560847        1.2416166253      -38.2796346742  TIP3      4696            0.0000000000
     32805      4857  TIP3      OH2             5.2962614333      -15.0328891911      -25.8815855840  TIP3      4697            0.0000000000
     32806      4857  TIP3      H1              5.0619246115      -15.9666407135      -25.7134121331  TIP3      4697            0.0000000000
     32807      4857  TIP3      H2              6.0876320003      -14.9683638261      -25.3038870974  TIP3      4697            0.0000000000
     32808      4858  TIP3      OH2             7.3389648927      -15.5474210301      -24.2106271177  TIP3      4698            0.0000000000
     32809      4858  TIP3      H1              8.2759729942      -15.7728105331      -24.3628060921  TIP3      4698            0.0000000000
     32810      4858  TIP3      H2              7.0111299357      -16.3429836366      -23.7181635035  TIP3      4698            0.0000000000
     32811      4859  TIP3      OH2             6.6479520413        1.7974643235      -40.8545288682  TIP3      4699            0.0000000000
     32812      4859  TIP3      H1              5.9778417627        2.3049622862      -40.3579564505  TIP3      4699            0.0000000000
     32813      4859  TIP3      H2              6.1130993182        1.3567606314      -41.5324025093  TIP3      4699            0.0000000000
     32814      4860  TIP3      OH2            15.9632484426      -16.0464948186      -24.1954475752  TIP3      4700            0.0000000000
     32815      4860  TIP3      H1             15.9452816364      -16.4501487181      -23.3071934740  TIP3      4700            0.0000000000
     32816      4860  TIP3      H2             16.7623611561      -16.4569580429      -24.5991642248  TIP3      4700            0.0000000000
     32817      4861  TIP3      OH2            18.5117469055       -0.2263311272      -25.6277573883  TIP3      4701            0.0000000000
     32818      4861  TIP3      H1             17.9980818201       -0.2047288129      -26.4646437967  TIP3      4701            0.0000000000
     32819      4861  TIP3      H2             17.7816541477       -0.2014002127      -25.0147415278  TIP3      4701            0.0000000000
     32820      4862  TIP3      OH2            33.6602469929       -6.3970173624      -35.8804860985  TIP3      4702            0.0000000000
     32821      4862  TIP3      H1             33.6765146154       -5.7953223414      -35.1268499232  TIP3      4702            0.0000000000
     32822      4862  TIP3      H2             32.7132113404       -6.5622451815      -36.0088469155  TIP3      4702            0.0000000000
     32823      4863  TIP3      OH2            31.9070022705       -7.2773764920      -32.2352104707  TIP3      4703            0.0000000000
     32824      4863  TIP3      H1             32.2207017165       -7.9298335718      -31.5861987777  TIP3      4703            0.0000000000
     32825      4863  TIP3      H2             31.8559470635       -7.8096694557      -33.0475035284  TIP3      4703            0.0000000000
     32826      4864  TIP3      OH2            24.7105575312       -6.9699097427      -30.2440379339  TIP3      4704            0.0000000000
     32827      4864  TIP3      H1             25.0843503953       -7.2803684000      -29.4000056818  TIP3      4704            0.0000000000
     32828      4864  TIP3      H2             25.4351372644       -6.4255777681      -30.5930826947  TIP3      4704            0.0000000000
     32829      4865  TIP3      OH2            25.3491225379       -2.6296955392      -32.2001315735  TIP3      4705            0.0000000000
     32830      4865  TIP3      H1             25.4154194129       -3.5649356027      -32.4379654742  TIP3      4705            0.0000000000
     32831      4865  TIP3      H2             26.2750379793       -2.4262394287      -31.9773847181  TIP3      4705            0.0000000000
     32832      4866  TIP3      OH2            21.8550008701       -9.2924125824      -36.6586028477  TIP3      4706            0.0000000000
     32833      4866  TIP3      H1             21.2370330863       -8.5343912480      -36.6670246728  TIP3      4706            0.0000000000
     32834      4866  TIP3      H2             21.2593658054      -10.0154508538      -36.9766102052  TIP3      4706            0.0000000000
     32835      4867  TIP3      OH2            22.5048983775       -7.2271689235      -34.2389392713  TIP3      4707            0.0000000000
     32836      4867  TIP3      H1             22.6644007736       -8.1955405838      -34.3694425678  TIP3      4707            0.0000000000
     32837      4867  TIP3      H2             23.3961103660       -6.8428782328      -34.3030348777  TIP3      4707            0.0000000000
     32838      4868  TIP3      OH2            32.6818738681        0.9363724786      -33.6028844798  TIP3      4708            0.0000000000
     32839      4868  TIP3      H1             33.5281366705        0.4748527110      -33.5437502223  TIP3      4708            0.0000000000
     32840      4868  TIP3      H2             32.6351918499        1.4754199667      -32.7858333007  TIP3      4708            0.0000000000
     32841      4869  TIP3      OH2            30.8249751456       -4.8956037728      -31.2647124409  TIP3      4709            0.0000000000
     32842      4869  TIP3      H1             31.3555805599       -5.6183043655      -31.6870540017  TIP3      4709            0.0000000000
     32843      4869  TIP3      H2             31.3148078486       -4.0988852745      -31.5281063191  TIP3      4709            0.0000000000
     32844      4870  TIP3      OH2            33.1856769366      -10.0463160269      -31.1298254265  TIP3      4710            0.0000000000
     32845      4870  TIP3      H1             33.3376685505      -10.9853132325      -30.9136538174  TIP3      4710            0.0000000000
     32846      4870  TIP3      H2             34.0691079869       -9.8545716522      -31.5281431610  TIP3      4710            0.0000000000
     32847      4871  TIP3      OH2            27.1271929508      -12.2444350711      -34.3686328575  TIP3      4711            0.0000000000
     32848      4871  TIP3      H1             27.1350729190      -11.3829807132      -34.8141698121  TIP3      4711            0.0000000000
     32849      4871  TIP3      H2             26.7634990170      -12.8322863754      -35.0486187209  TIP3      4711            0.0000000000
     32850      4872  TIP3      OH2           -34.9819240511      -10.9336083752      -36.1956587527  TIP3      4712            0.0000000000
     32851      4872  TIP3      H1            -34.9979327963      -11.8816152448      -35.9094393766  TIP3      4712            0.0000000000
     32852      4872  TIP3      H2            -34.4306851209      -10.6456479780      -35.4396033492  TIP3      4712            0.0000000000
     32853      4873  TIP3      OH2            22.9358367418       -9.8973321805      -34.1765040637  TIP3      4713            0.0000000000
     32854      4873  TIP3      H1             23.0363972631      -10.7218296218      -33.6540251697  TIP3      4713            0.0000000000
     32855      4873  TIP3      H2             22.9801975141      -10.2655447645      -35.0792488653  TIP3      4713            0.0000000000
     32856      4874  TIP3      OH2            28.2081672261       -8.0104005267      -33.9639102530  TIP3      4714            0.0000000000
     32857      4874  TIP3      H1             29.1197634634       -8.3562970636      -34.1151590589  TIP3      4714            0.0000000000
     32858      4874  TIP3      H2             27.6900005829       -8.8422616151      -33.9633379595  TIP3      4714            0.0000000000
     32859      4875  TIP3      OH2            26.0609227114      -12.9170953773      -29.7927065823  TIP3      4715            0.0000000000
     32860      4875  TIP3      H1             25.4997936677      -12.8160348251      -30.5971494751  TIP3      4715            0.0000000000
     32861      4875  TIP3      H2             25.3439523166      -12.7183377360      -29.1604523684  TIP3      4715            0.0000000000
     32862      4876  TIP3      OH2            32.5314429492       -3.3124232893      -36.6595712703  TIP3      4716            0.0000000000
     32863      4876  TIP3      H1             31.7707717868       -3.2333117303      -37.2664042456  TIP3      4716            0.0000000000
     32864      4876  TIP3      H2             32.2671491910       -2.6049889313      -36.0350515941  TIP3      4716            0.0000000000
     32865      4877  TIP3      OH2            28.2516022455       -5.1510617350      -30.3655988683  TIP3      4717            0.0000000000
     32866      4877  TIP3      H1             27.7146519758       -4.3630374284      -30.1278040453  TIP3      4717            0.0000000000
     32867      4877  TIP3      H2             29.0937617200       -4.7815303976      -30.7027091966  TIP3      4717            0.0000000000
     32868      4878  TIP3      OH2            26.1148785825       -9.7104554855      -32.9233520852  TIP3      4718            0.0000000000
     32869      4878  TIP3      H1             26.7459037599       -9.7957243188      -32.1952464534  TIP3      4718            0.0000000000
     32870      4878  TIP3      H2             25.7969703314      -10.6302991936      -33.0039550957  TIP3      4718            0.0000000000
     32871      4879  TIP3      OH2            26.5518915890       -3.5541068421      -29.1534206975  TIP3      4719            0.0000000000
     32872      4879  TIP3      H1             26.5048617191       -2.6257627105      -29.4898612042  TIP3      4719            0.0000000000
     32873      4879  TIP3      H2             25.6595949010       -3.6082046203      -28.7295248990  TIP3      4719            0.0000000000
     32874      4880  TIP3      OH2            22.5146894777       -3.7012348699      -38.3343694675  TIP3      4720            0.0000000000
     32875      4880  TIP3      H1             22.5594435648       -3.4174459083      -39.2828570384  TIP3      4720            0.0000000000
     32876      4880  TIP3      H2             22.6529561835       -2.8880326821      -37.8405401856  TIP3      4720            0.0000000000
     32877      4881  TIP3      OH2            29.4998096930      -15.8664953348      -32.9654037139  TIP3      4721            0.0000000000
     32878      4881  TIP3      H1             29.4438175221      -16.8459481351      -32.8845949859  TIP3      4721            0.0000000000
     32879      4881  TIP3      H2             28.6601913142      -15.5919765827      -32.5260573831  TIP3      4721            0.0000000000
     32880      4882  TIP3      OH2            34.4040583798       -0.3794444635      -35.9740142735  TIP3      4722            0.0000000000
     32881      4882  TIP3      H1             34.5964658477       -1.2918440190      -35.7442776388  TIP3      4722            0.0000000000
     32882      4882  TIP3      H2             35.0287876282        0.0880659218      -35.3657637904  TIP3      4722            0.0000000000
     32883      4883  TIP3      OH2            31.8442168872       -6.6698382789      -38.5812199062  TIP3      4723            0.0000000000
     32884      4883  TIP3      H1             31.2273323779       -5.9067632801      -38.6536537222  TIP3      4723            0.0000000000
     32885      4883  TIP3      H2             31.9894065758       -6.9238948534      -39.5049566918  TIP3      4723            0.0000000000
     32886      4884  TIP3      OH2            32.1617922538       -8.9331738825      -41.1932193962  TIP3      4724            0.0000000000
     32887      4884  TIP3      H1             33.0254114734       -8.4837922871      -41.1038964291  TIP3      4724            0.0000000000
     32888      4884  TIP3      H2             32.3833837911       -9.8447380790      -40.9936511505  TIP3      4724            0.0000000000
     32889      4885  TIP3      OH2            26.9220515261       -6.2219374769      -35.4760181531  TIP3      4725            0.0000000000
     32890      4885  TIP3      H1             26.8449552284       -6.6690701293      -36.3276049008  TIP3      4725            0.0000000000
     32891      4885  TIP3      H2             27.4753555727       -6.8753350788      -35.0004812957  TIP3      4725            0.0000000000
     32892      4886  TIP3      OH2            28.2022596017       -2.8094050728      -32.7941805471  TIP3      4726            0.0000000000
     32893      4886  TIP3      H1             28.5157072530       -2.7047155430      -33.7096362314  TIP3      4726            0.0000000000
     32894      4886  TIP3      H2             28.8580607250       -3.4456374085      -32.4760335498  TIP3      4726            0.0000000000
     32895      4887  TIP3      OH2            27.1290114123       -7.2683889779      -31.5060419442  TIP3      4727            0.0000000000
     32896      4887  TIP3      H1             27.4318226502       -7.4448383428      -32.4212937844  TIP3      4727            0.0000000000
     32897      4887  TIP3      H2             27.7486492709       -6.5621530220      -31.2069934912  TIP3      4727            0.0000000000
     32898      4888  TIP3      OH2            33.5380225032       -1.7205174881      -30.9633837798  TIP3      4728            0.0000000000
     32899      4888  TIP3      H1             33.5651249119       -0.8263645633      -30.5516415369  TIP3      4728            0.0000000000
     32900      4888  TIP3      H2             33.8110183198       -2.2414110592      -30.1937708101  TIP3      4728            0.0000000000
     32901      4889  TIP3      OH2            28.0393453313       -3.5382219610      -26.9175288576  TIP3      4729            0.0000000000
     32902      4889  TIP3      H1             27.7826118238       -2.7498545097      -26.3854226023  TIP3      4729            0.0000000000
     32903      4889  TIP3      H2             27.4819902357       -3.3660644881      -27.7153909481  TIP3      4729            0.0000000000
     32904      4890  TIP3      OH2            34.6640088977       -6.8819109807      -39.6965953270  TIP3      4730            0.0000000000
     32905      4890  TIP3      H1             35.3327481950       -7.2995974980      -39.1354234660  TIP3      4730            0.0000000000
     32906      4890  TIP3      H2             35.1486218503       -6.8514407141      -40.5392349528  TIP3      4730            0.0000000000
     32907      4891  TIP3      OH2            25.4127498920       -6.7682155016      -27.4933109531  TIP3      4731            0.0000000000
     32908      4891  TIP3      H1             25.1912094516       -5.9122476636      -27.0698070563  TIP3      4731            0.0000000000
     32909      4891  TIP3      H2             24.7684760557       -7.3330995110      -27.0248322224  TIP3      4731            0.0000000000
     32910      4892  TIP3      OH2            31.2493270724       -0.9837599215      -36.0080991831  TIP3      4732            0.0000000000
     32911      4892  TIP3      H1             31.8019780159       -0.3243682477      -35.5442706213  TIP3      4732            0.0000000000
     32912      4892  TIP3      H2             31.1622172811       -0.5816524947      -36.8880050112  TIP3      4732            0.0000000000
     32913      4893  TIP3      OH2            27.2072240509       -1.2052453106      -25.9987524737  TIP3      4733            0.0000000000
     32914      4893  TIP3      H1             27.3228378819       -0.3489740409      -26.4835777622  TIP3      4733            0.0000000000
     32915      4893  TIP3      H2             26.2580657101       -1.1750216329      -25.8016518355  TIP3      4733            0.0000000000
     32916      4894  TIP3      OH2            26.1009262416       -7.1792934888      -38.4774907122  TIP3      4734            0.0000000000
     32917      4894  TIP3      H1             25.6851600748       -6.3380497967      -38.7685723436  TIP3      4734            0.0000000000
     32918      4894  TIP3      H2             26.3817738089       -7.5607133948      -39.3439764694  TIP3      4734            0.0000000000
     32919      4895  TIP3      OH2            22.1201754389       -4.8939628504      -28.9630206595  TIP3      4735            0.0000000000
     32920      4895  TIP3      H1             21.9152768231       -5.0438697844      -29.8922430813  TIP3      4735            0.0000000000
     32921      4895  TIP3      H2             22.3276048594       -5.8222952579      -28.7282712018  TIP3      4735            0.0000000000
     32922      4896  TIP3      OH2            22.2554953281       -2.2909361278      -32.1852300469  TIP3      4736            0.0000000000
     32923      4896  TIP3      H1             23.1171458884       -2.5190886326      -32.5696273376  TIP3      4736            0.0000000000
     32924      4896  TIP3      H2             22.5564206251       -1.9439131212      -31.3187351012  TIP3      4736            0.0000000000
     32925      4897  TIP3      OH2            30.8790116358       -2.2295712020      -27.4548089619  TIP3      4737            0.0000000000
     32926      4897  TIP3      H1             30.9820201748       -1.3527771847      -27.0151561438  TIP3      4737            0.0000000000
     32927      4897  TIP3      H2             29.9209313263       -2.3667135677      -27.3744196217  TIP3      4737            0.0000000000
     32928      4898  TIP3      OH2            30.8969707415        2.3865324952      -37.5854249074  TIP3      4738            0.0000000000
     32929      4898  TIP3      H1             31.0632614397        2.4503246413      -38.5425242112  TIP3      4738            0.0000000000
     32930      4898  TIP3      H2             31.4071760546        3.1858355608      -37.2955263695  TIP3      4738            0.0000000000
     32931      4899  TIP3      OH2            25.2546506120        0.9827539879      -35.7717508139  TIP3      4739            0.0000000000
     32932      4899  TIP3      H1             25.1983067703        0.4170706778      -34.9642614362  TIP3      4739            0.0000000000
     32933      4899  TIP3      H2             24.5794507391        0.5196299908      -36.3142020346  TIP3      4739            0.0000000000
     32934      4900  TIP3      OH2            34.4429722430        1.3508550687      -40.5371411002  TIP3      4740            0.0000000000
     32935      4900  TIP3      H1             35.1664023424        0.8105719641      -40.9330622298  TIP3      4740            0.0000000000
     32936      4900  TIP3      H2             34.5730186763        1.1730952941      -39.5881847462  TIP3      4740            0.0000000000
     32937      4901  TIP3      OH2            33.6715450746        1.7731013939      -37.8133869964  TIP3      4741            0.0000000000
     32938      4901  TIP3      H1             32.7358185205        1.5728645550      -37.6258623220  TIP3      4741            0.0000000000
     32939      4901  TIP3      H2             34.0803506025        0.9020284900      -37.6467812325  TIP3      4741            0.0000000000
     32940      4902  TIP3      OH2            24.3078751521       -3.6846926161      -27.8158001758  TIP3      4742            0.0000000000
     32941      4902  TIP3      H1             24.3184138668       -4.1337929187      -26.9376005659  TIP3      4742            0.0000000000
     32942      4902  TIP3      H2             23.4840659327       -4.0151350844      -28.2187783133  TIP3      4742            0.0000000000
     32943      4903  TIP3      OH2            27.2908375676      -14.9462724440      -31.7959625022  TIP3      4743            0.0000000000
     32944      4903  TIP3      H1             26.4062494924      -15.0115035563      -32.2124976410  TIP3      4743            0.0000000000
     32945      4903  TIP3      H2             27.1626249459      -14.1666274846      -31.2324138964  TIP3      4743            0.0000000000
     32946      4904  TIP3      OH2            31.7941332003      -16.0798486321      -28.6135478112  TIP3      4744            0.0000000000
     32947      4904  TIP3      H1             32.2675309992      -16.0780096937      -27.7596759301  TIP3      4744            0.0000000000
     32948      4904  TIP3      H2             30.8786674599      -15.8627476273      -28.3532244000  TIP3      4744            0.0000000000
     32949      4905  TIP3      OH2            30.8432831160      -13.1317588761      -41.1815117824  TIP3      4745            0.0000000000
     32950      4905  TIP3      H1             30.6628037289      -13.0159593344      -40.2290941362  TIP3      4745            0.0000000000
     32951      4905  TIP3      H2             30.0596921270      -13.6829514396      -41.4341216884  TIP3      4745            0.0000000000
     32952      4906  TIP3      OH2            27.3524083271       -9.7124495082      -30.3455126756  TIP3      4746            0.0000000000
     32953      4906  TIP3      H1             26.4815869225      -10.0988139099      -30.1083528708  TIP3      4746            0.0000000000
     32954      4906  TIP3      H2             27.1053551762       -8.8239232181      -30.6681967422  TIP3      4746            0.0000000000
     32955      4907  TIP3      OH2            26.6657379323       -9.8824363817      -35.8076616140  TIP3      4747            0.0000000000
     32956      4907  TIP3      H1             25.9781691665      -10.5168675927      -36.0447055418  TIP3      4747            0.0000000000
     32957      4907  TIP3      H2             27.1816211374       -9.7941322440      -36.6273984416  TIP3      4747            0.0000000000
     32958      4908  TIP3      OH2            32.5923383933       -8.8578359182      -37.1057042309  TIP3      4748            0.0000000000
     32959      4908  TIP3      H1             32.5598328511       -7.9951388349      -37.5810530664  TIP3      4748            0.0000000000
     32960      4908  TIP3      H2             33.1156224665       -9.3669078696      -37.7479979114  TIP3      4748            0.0000000000
     32961      4909  TIP3      OH2            31.6664264149       -8.9773935457      -25.2138374023  TIP3      4749            0.0000000000
     32962      4909  TIP3      H1             31.4877490393       -9.9309708521      -25.0586418340  TIP3      4749            0.0000000000
     32963      4909  TIP3      H2             32.5161591164       -8.8392228730      -24.7696525110  TIP3      4749            0.0000000000
     32964      4910  TIP3      OH2            33.4052212668       -9.9049046077      -33.9466257356  TIP3      4750            0.0000000000
     32965      4910  TIP3      H1             33.8845821938       -9.6033953024      -34.7327168846  TIP3      4750            0.0000000000
     32966      4910  TIP3      H2             33.9900669362      -10.5860896010      -33.5644428515  TIP3      4750            0.0000000000
     32967      4911  TIP3      OH2            24.9118397761      -10.0257734600      -29.2054961289  TIP3      4751            0.0000000000
     32968      4911  TIP3      H1             24.8858757343       -9.9072536535      -28.2437573092  TIP3      4751            0.0000000000
     32969      4911  TIP3      H2             24.4247826693      -10.8767815430      -29.3252372714  TIP3      4751            0.0000000000
     32970      4912  TIP3      OH2            28.3280799506      -13.7664676526      -41.6928054203  TIP3      4752            0.0000000000
     32971      4912  TIP3      H1             27.7996197118      -13.7141638499      -40.8590692328  TIP3      4752            0.0000000000
     32972      4912  TIP3      H2             28.4028460431      -12.8014671896      -41.8993163044  TIP3      4752            0.0000000000
     32973      4913  TIP3      OH2            21.7621057117      -12.7117341369      -34.8958604030  TIP3      4753            0.0000000000
     32974      4913  TIP3      H1             22.4518004724      -12.8989939391      -35.5401915653  TIP3      4753            0.0000000000
     32975      4913  TIP3      H2             21.1437556452      -12.1795464056      -35.4503013987  TIP3      4753            0.0000000000
     32976      4914  TIP3      OH2            22.9090073066      -12.1011894061      -39.7352383978  TIP3      4754            0.0000000000
     32977      4914  TIP3      H1             23.5046758763      -11.6993913487      -40.3959910803  TIP3      4754            0.0000000000
     32978      4914  TIP3      H2             22.3468904977      -11.3249008435      -39.5122887294  TIP3      4754            0.0000000000
     32979      4915  TIP3      OH2            32.6285296594       -7.9967529081      -29.3253711426  TIP3      4755            0.0000000000
     32980      4915  TIP3      H1             33.2683099627       -8.4862219532      -29.8796677395  TIP3      4755            0.0000000000
     32981      4915  TIP3      H2             32.1381774552       -8.7619235490      -28.9407302046  TIP3      4755            0.0000000000
     32982      4916  TIP3      OH2            29.8348165465      -12.4878728626      -35.0499852824  TIP3      4756            0.0000000000
     32983      4916  TIP3      H1             28.9011471960      -12.4822807442      -34.7612296010  TIP3      4756            0.0000000000
     32984      4916  TIP3      H2             30.3221322287      -12.6844464197      -34.2457378197  TIP3      4756            0.0000000000
     32985      4917  TIP3      OH2            24.1659312586      -11.2687911323      -36.8200341641  TIP3      4757            0.0000000000
     32986      4917  TIP3      H1             23.3243023375      -11.6535882656      -37.0984743282  TIP3      4757            0.0000000000
     32987      4917  TIP3      H2             24.7098737674      -12.0929202695      -36.7383801517  TIP3      4757            0.0000000000
     32988      4918  TIP3      OH2            27.5427700316      -10.2468781731      -38.4537774982  TIP3      4758            0.0000000000
     32989      4918  TIP3      H1             28.5055760011      -10.3099396351      -38.3045013659  TIP3      4758            0.0000000000
     32990      4918  TIP3      H2             27.4759781883       -9.7517232646      -39.2942909111  TIP3      4758            0.0000000000
     32991      4919  TIP3      OH2            34.0482785804      -12.4509634287      -32.4993545169  TIP3      4759            0.0000000000
     32992      4919  TIP3      H1             33.3986677170      -12.8126034725      -31.8739374437  TIP3      4759            0.0000000000
     32993      4919  TIP3      H2             34.5554589957      -13.2721516419      -32.6500299676  TIP3      4759            0.0000000000
     32994      4920  TIP3      OH2            26.5884104291       -8.7616422386      -40.5807466452  TIP3      4760            0.0000000000
     32995      4920  TIP3      H1             25.8762363290       -9.4162219353      -40.7531873966  TIP3      4760            0.0000000000
     32996      4920  TIP3      H2             27.2037991836       -8.9745903077      -41.3182400600  TIP3      4760            0.0000000000
     32997      4921  TIP3      OH2            24.6337921754       -4.8572389323      -25.5357239202  TIP3      4761            0.0000000000
     32998      4921  TIP3      H1             25.2928727450       -4.9438679120      -24.8134241423  TIP3      4761            0.0000000000
     32999      4921  TIP3      H2             23.7938756304       -5.0344568966      -25.0573240343  TIP3      4761            0.0000000000
     33000      4922  TIP3      OH2            30.7273681348       -9.5061226733      -33.4450447429  TIP3      4762            0.0000000000
     33001      4922  TIP3      H1             31.6796663070       -9.6882900447      -33.6093650222  TIP3      4762            0.0000000000
     33002      4922  TIP3      H2             30.6006897180       -9.8017368872      -32.5348396990  TIP3      4762            0.0000000000
     33003      4923  TIP3      OH2            25.6829496878      -13.4310320057      -36.4766678787  TIP3      4763            0.0000000000
     33004      4923  TIP3      H1             25.1134776181      -13.9820404626      -35.8918732471  TIP3      4763            0.0000000000
     33005      4923  TIP3      H2             26.2767194279      -14.1256281497      -36.7938060043  TIP3      4763            0.0000000000
     33006      4924  TIP3      OH2            29.6928117002      -11.4211896491      -30.8590099064  TIP3      4764            0.0000000000
     33007      4924  TIP3      H1             28.9182436471      -10.8292567702      -30.7813204345  TIP3      4764            0.0000000000
     33008      4924  TIP3      H2             30.3342521380      -11.0495456339      -30.2356125236  TIP3      4764            0.0000000000
     33009      4925  TIP3      OH2            30.2018007983       -4.6115978148      -38.5029575709  TIP3      4765            0.0000000000
     33010      4925  TIP3      H1             29.5583413845       -5.0145070542      -39.1227002149  TIP3      4765            0.0000000000
     33011      4925  TIP3      H2             29.6655735558       -4.4519257391      -37.6968064246  TIP3      4765            0.0000000000
     33012      4926  TIP3      OH2            33.4555483798      -12.0952708636      -40.4953516491  TIP3      4766            0.0000000000
     33013      4926  TIP3      H1             32.7143405654      -12.4625485687      -41.0216292150  TIP3      4766            0.0000000000
     33014      4926  TIP3      H2             33.4521578396      -11.1535383258      -40.7104510090  TIP3      4766            0.0000000000
     33015      4927  TIP3      OH2            31.9568579937       -4.7148725986      -27.2166352951  TIP3      4767            0.0000000000
     33016      4927  TIP3      H1             31.3573396048       -4.8280208608      -26.4568351042  TIP3      4767            0.0000000000
     33017      4927  TIP3      H2             31.7137189785       -3.8031799010      -27.4872285488  TIP3      4767            0.0000000000
     33018      4928  TIP3      OH2            34.4843701516       -9.7078092642      -39.2596808321  TIP3      4768            0.0000000000
     33019      4928  TIP3      H1             34.9969928584      -10.4754216029      -38.9366622020  TIP3      4768            0.0000000000
     33020      4928  TIP3      H2             34.9321680359       -9.5042409745      -40.1027095491  TIP3      4768            0.0000000000
     33021      4929  TIP3      OH2            25.2739382990       -5.6737334826      -33.3897554194  TIP3      4769            0.0000000000
     33022      4929  TIP3      H1             25.5684554966       -5.5950429074      -34.3234326374  TIP3      4769            0.0000000000
     33023      4929  TIP3      H2             26.1312167818       -5.8658096334      -32.9747493255  TIP3      4769            0.0000000000
     33024      4930  TIP3      OH2            32.1284511217       -3.1529644995      -39.9494069475  TIP3      4770            0.0000000000
     33025      4930  TIP3      H1             31.6771397089       -2.3377757744      -39.6575539313  TIP3      4770            0.0000000000
     33026      4930  TIP3      H2             31.4369351738       -3.5524482294      -40.5339301907  TIP3      4770            0.0000000000
     33027      4931  TIP3      OH2            22.2210503004       -7.5892784825      -28.0723529958  TIP3      4771            0.0000000000
     33028      4931  TIP3      H1             22.1206188035       -7.9424144514      -27.1623018683  TIP3      4771            0.0000000000
     33029      4931  TIP3      H2             21.5889221780       -8.1170534031      -28.5687159625  TIP3      4771            0.0000000000
     33030      4932  TIP3      OH2            29.3388858523       -7.8580817479      -26.0508629165  TIP3      4772            0.0000000000
     33031      4932  TIP3      H1             28.9126404237       -8.6834071790      -26.3453160558  TIP3      4772            0.0000000000
     33032      4932  TIP3      H2             30.2523758911       -8.1978097608      -25.9227316665  TIP3      4772            0.0000000000
     33033      4933  TIP3      OH2            33.9050649535       -2.0979983332      -27.6598347216  TIP3      4773            0.0000000000
     33034      4933  TIP3      H1             33.0029239822       -1.7704359919      -27.5577828731  TIP3      4773            0.0000000000
     33035      4933  TIP3      H2             34.2282200812       -1.9759799340      -26.7362337152  TIP3      4773            0.0000000000
     33036      4934  TIP3      OH2            27.5676831978       -2.1621449853      -35.5160364224  TIP3      4774            0.0000000000
     33037      4934  TIP3      H1             28.1532622078       -1.5125438380      -35.9582177178  TIP3      4774            0.0000000000
     33038      4934  TIP3      H2             26.6754817746       -1.8761682710      -35.7660461957  TIP3      4774            0.0000000000
     33039      4935  TIP3      OH2            23.5025588910       -7.1108012447      -41.5131034374  TIP3      4775            0.0000000000
     33040      4935  TIP3      H1             23.9636596465       -6.5631731398      -40.8469829132  TIP3      4775            0.0000000000
     33041      4935  TIP3      H2             22.5550278938       -7.0338052711      -41.2246788564  TIP3      4775            0.0000000000
     33042      4936  TIP3      OH2            28.9754697077       -4.3866274444      -36.1283214279  TIP3      4776            0.0000000000
     33043      4936  TIP3      H1             28.3502869483       -3.6395754530      -36.0300723744  TIP3      4776            0.0000000000
     33044      4936  TIP3      H2             28.5103045066       -5.0954414899      -35.6488197363  TIP3      4776            0.0000000000
     33045      4937  TIP3      OH2            29.2893987043       -0.9386750864      -29.2653022972  TIP3      4777            0.0000000000
     33046      4937  TIP3      H1             29.9563434259       -0.4405301408      -29.7835689319  TIP3      4777            0.0000000000
     33047      4937  TIP3      H2             29.7741496280       -0.9452087228      -28.4257189531  TIP3      4777            0.0000000000
     33048      4938  TIP3      OH2            27.9664387860        0.5174664950      -36.3100744019  TIP3      4778            0.0000000000
     33049      4938  TIP3      H1             27.0071316774        0.5904764865      -36.4741803626  TIP3      4778            0.0000000000
     33050      4938  TIP3      H2             28.3064662368        1.4145951872      -36.4847443004  TIP3      4778            0.0000000000
     33051      4939  TIP3      OH2            33.7974803273       -4.2693544019      -29.7812488096  TIP3      4779            0.0000000000
     33052      4939  TIP3      H1             33.0521523862       -3.7863601875      -29.3841499473  TIP3      4779            0.0000000000
     33053      4939  TIP3      H2             33.3790080499       -4.7333755598      -30.5159159614  TIP3      4779            0.0000000000
     33054      4940  TIP3      OH2            23.7378497267      -12.5123505462      -28.4901651621  TIP3      4780            0.0000000000
     33055      4940  TIP3      H1             23.0791597568      -12.0939301974      -27.9220297878  TIP3      4780            0.0000000000
     33056      4940  TIP3      H2             23.3112234499      -13.3685122005      -28.6562277538  TIP3      4780            0.0000000000
     33057      4941  TIP3      OH2            23.3143633547       -1.0841542946      -29.7849253287  TIP3      4781            0.0000000000
     33058      4941  TIP3      H1             24.0694074181       -1.6985040870      -29.8089363307  TIP3      4781            0.0000000000
     33059      4941  TIP3      H2             23.6709249506       -0.4450989348      -29.1513715909  TIP3      4781            0.0000000000
     33060      4942  TIP3      OH2            28.0059746850       -2.2717325605      -39.9555450813  TIP3      4782            0.0000000000
     33061      4942  TIP3      H1             28.7401649597       -2.7628209783      -40.3891001057  TIP3      4782            0.0000000000
     33062      4942  TIP3      H2             28.4509474695       -1.4822982767      -39.5850121267  TIP3      4782            0.0000000000
     33063      4943  TIP3      OH2            24.6344671202       -5.0916314221      -39.4444946339  TIP3      4783            0.0000000000
     33064      4943  TIP3      H1             23.9293438808       -4.7252149032      -38.8658968041  TIP3      4783            0.0000000000
     33065      4943  TIP3      H2             25.0230365952       -4.2647375414      -39.8158731217  TIP3      4783            0.0000000000
     33066      4944  TIP3      OH2            32.4407590260      -12.4816197696      -28.4801585524  TIP3      4784            0.0000000000
     33067      4944  TIP3      H1             33.1719385310      -12.3681932812      -27.8473082715  TIP3      4784            0.0000000000
     33068      4944  TIP3      H2             32.6310766734      -13.3674545591      -28.8226912309  TIP3      4784            0.0000000000
     33069      4945  TIP3      OH2            33.3238160009      -12.4434799275      -37.8827051124  TIP3      4785            0.0000000000
     33070      4945  TIP3      H1             33.3875601100      -12.3497463505      -38.8594216903  TIP3      4785            0.0000000000
     33071      4945  TIP3      H2             33.7504318335      -11.6360558441      -37.5454098689  TIP3      4785            0.0000000000
     33072      4946  TIP3      OH2            31.3764831360       -0.5586767535      -39.2646457249  TIP3      4786            0.0000000000
     33073      4946  TIP3      H1             30.5927084411        0.0155992488      -39.3166391247  TIP3      4786            0.0000000000
     33074      4946  TIP3      H2             31.7953575241       -0.4122501322      -40.1449765847  TIP3      4786            0.0000000000
     33075      4947  TIP3      OH2            30.7018993364      -10.7885551071      -37.1290395073  TIP3      4787            0.0000000000
     33076      4947  TIP3      H1             31.4098763432      -10.1189402666      -36.9833634344  TIP3      4787            0.0000000000
     33077      4947  TIP3      H2             30.6932067631      -11.2546021586      -36.2642430152  TIP3      4787            0.0000000000
     33078      4948  TIP3      OH2            31.0548355964      -10.1687032861      -27.9381409235  TIP3      4788            0.0000000000
     33079      4948  TIP3      H1             31.1243239755      -10.1727127655      -26.9638637291  TIP3      4788            0.0000000000
     33080      4948  TIP3      H2             31.4139601037      -11.0794733591      -28.1227722627  TIP3      4788            0.0000000000
     33081      4949  TIP3      OH2            31.6108865871      -14.3398626146      -36.7079059733  TIP3      4789            0.0000000000
     33082      4949  TIP3      H1             31.7676480900      -14.3661332460      -35.7313122903  TIP3      4789            0.0000000000
     33083      4949  TIP3      H2             32.2082271181      -13.6052174516      -36.9700634563  TIP3      4789            0.0000000000
     33084      4950  TIP3      OH2            28.5155181078        0.3867082125      -39.2639751287  TIP3      4790            0.0000000000
     33085      4950  TIP3      H1             28.5088476024        1.1079861854      -39.9270929456  TIP3      4790            0.0000000000
     33086      4950  TIP3      H2             28.1583057708        0.8341470519      -38.4865231258  TIP3      4790            0.0000000000
     33087      4951  TIP3      OH2            27.0240354581      -12.9702552734      -39.5268541387  TIP3      4791            0.0000000000
     33088      4951  TIP3      H1             26.9925865039      -12.1015532072      -39.0977246438  TIP3      4791            0.0000000000
     33089      4951  TIP3      H2             27.9001944936      -13.2535720470      -39.1823425376  TIP3      4791            0.0000000000
     33090      4952  TIP3      OH2            25.5596210545       -2.6245379586      -40.8132270377  TIP3      4792            0.0000000000
     33091      4952  TIP3      H1             26.4077702988       -2.3685402326      -40.3740861834  TIP3      4792            0.0000000000
     33092      4952  TIP3      H2             25.9509587709       -3.1073080149      -41.5759750736  TIP3      4792            0.0000000000
     33093      4953  TIP3      OH2            24.0974311690       -9.8715052149      -41.1168943842  TIP3      4793            0.0000000000
     33094      4953  TIP3      H1             24.1757219831       -8.9561473168      -41.4441023561  TIP3      4793            0.0000000000
     33095      4953  TIP3      H2             23.1486981250       -9.9998476533      -41.2657712273  TIP3      4793            0.0000000000
     33096      4954  TIP3      OH2            24.5762621029      -15.4424811230      -32.5339978622  TIP3      4794            0.0000000000
     33097      4954  TIP3      H1             24.6246056514      -15.2089997297      -33.4839428192  TIP3      4794            0.0000000000
     33098      4954  TIP3      H2             24.7426108585      -16.3973851255      -32.5472499265  TIP3      4794            0.0000000000
     33099      4955  TIP3      OH2            23.3535263697       -0.8111088861      -36.4007734374  TIP3      4795            0.0000000000
     33100      4955  TIP3      H1             22.6431073479       -0.3761544933      -36.9149063709  TIP3      4795            0.0000000000
     33101      4955  TIP3      H2             23.8692538767       -1.1440946830      -37.1514300932  TIP3      4795            0.0000000000
     33102      4956  TIP3      OH2            22.9643103514        0.9746673937      -25.0812208480  TIP3      4796            0.0000000000
     33103      4956  TIP3      H1             23.4652086807        1.0855661077      -24.2537874870  TIP3      4796            0.0000000000
     33104      4956  TIP3      H2             22.9221714835       -0.0108134430      -25.0693813354  TIP3      4796            0.0000000000
     33105      4957  TIP3      OH2            27.6859353382       -0.1156539398      -23.4496952325  TIP3      4797            0.0000000000
     33106      4957  TIP3      H1             28.5626594213       -0.4725925422      -23.2203160878  TIP3      4797            0.0000000000
     33107      4957  TIP3      H2             27.5538206024       -0.6146054892      -24.2813004068  TIP3      4797            0.0000000000
     33108      4958  TIP3      OH2            32.3797403862       -0.0256817160      -41.7017093891  TIP3      4798            0.0000000000
     33109      4958  TIP3      H1             32.0609128343       -0.6245842363      -42.4034998478  TIP3      4798            0.0000000000
     33110      4958  TIP3      H2             33.1502637279        0.3740719863      -42.1473718756  TIP3      4798            0.0000000000
     33111      4959  TIP3      OH2            34.4048685909       -1.8298966435      -25.0268696109  TIP3      4799            0.0000000000
     33112      4959  TIP3      H1             33.6254563368       -2.3281756669      -24.6861550997  TIP3      4799            0.0000000000
     33113      4959  TIP3      H2             34.7699404203       -1.5137965096      -24.1922175586  TIP3      4799            0.0000000000
     33114      4960  TIP3      OH2            22.0984285147       -4.8896145777      -24.5386917996  TIP3      4800            0.0000000000
     33115      4960  TIP3      H1             22.0575150663       -5.8464153864      -24.3448685951  TIP3      4800            0.0000000000
     33116      4960  TIP3      H2             21.5249679128       -4.7694056881      -25.3314534582  TIP3      4800            0.0000000000
     33117      4961  TIP3      OH2            26.6036634405       -4.5687425193      -42.3063769682  TIP3      4801            0.0000000000
     33118      4961  TIP3      H1             27.3102431560       -4.4581130294      -41.6460817937  TIP3      4801            0.0000000000
     33119      4961  TIP3      H2             27.1824236836       -4.5281911865      -43.0911292634  TIP3      4801            0.0000000000
     33120      4962  TIP3      OH2            29.8043158304       -5.0147088735      -25.1608964427  TIP3      4802            0.0000000000
     33121      4962  TIP3      H1             29.0140104963       -4.5105327051      -25.4177006540  TIP3      4802            0.0000000000
     33122      4962  TIP3      H2             29.4665351144       -5.9113053383      -25.0085035548  TIP3      4802            0.0000000000
     33123      4963  TIP3      OH2            23.4510737527       -7.7356195378      -25.2092233548  TIP3      4803            0.0000000000
     33124      4963  TIP3      H1             23.8531622761       -8.6063307274      -25.0547159195  TIP3      4803            0.0000000000
     33125      4963  TIP3      H2             23.6471235161       -7.3534446658      -24.3398064293  TIP3      4803            0.0000000000
     33126      4964  TIP3      OH2            28.7206599431       -6.5547935091      -39.8603838518  TIP3      4804            0.0000000000
     33127      4964  TIP3      H1             28.0345424600       -7.1984944000      -39.6757894183  TIP3      4804            0.0000000000
     33128      4964  TIP3      H2             28.9711334367       -6.8339533046      -40.7633767512  TIP3      4804            0.0000000000
     33129      4965  TIP3      OH2            27.4362420502       -9.2974732090      -27.5354274423  TIP3      4805            0.0000000000
     33130      4965  TIP3      H1             26.8048181493       -8.5804300958      -27.4010234706  TIP3      4805            0.0000000000
     33131      4965  TIP3      H2             27.7152786947       -9.2024209722      -28.4668243747  TIP3      4805            0.0000000000
     33132      4966  TIP3      OH2            29.3699661594       -8.2357494479      -42.0775410115  TIP3      4806            0.0000000000
     33133      4966  TIP3      H1             29.1988001196       -9.1889775224      -42.2581947466  TIP3      4806            0.0000000000
     33134      4966  TIP3      H2             30.2921059120       -8.2274384259      -41.7637085506  TIP3      4806            0.0000000000
     33135      4967  TIP3      OH2            32.7434846025       -5.9878628947      -24.1289572007  TIP3      4807            0.0000000000
     33136      4967  TIP3      H1             33.3337481703       -6.7473436139      -24.1107838854  TIP3      4807            0.0000000000
     33137      4967  TIP3      H2             32.2598874071       -6.1538078666      -23.2845709203  TIP3      4807            0.0000000000
     33138      4968  TIP3      OH2            27.6161621131      -11.8239133299      -26.7838778907  TIP3      4808            0.0000000000
     33139      4968  TIP3      H1             28.0880134781      -12.3185960534      -27.4865734534  TIP3      4808            0.0000000000
     33140      4968  TIP3      H2             27.4320133098      -10.9684152309      -27.2128365847  TIP3      4808            0.0000000000
     33141      4969  TIP3      OH2            28.6426597430      -13.0354069245      -28.9481458846  TIP3      4809            0.0000000000
     33142      4969  TIP3      H1             29.0872498780      -12.6396246528      -29.7328568130  TIP3      4809            0.0000000000
     33143      4969  TIP3      H2             27.6913422045      -12.9514515100      -29.2016397217  TIP3      4809            0.0000000000
     33144      4970  TIP3      OH2            29.9891718914       -7.1874367140      -29.1108791338  TIP3      4810            0.0000000000
     33145      4970  TIP3      H1             30.9331085282       -7.4529531333      -29.0837549583  TIP3      4810            0.0000000000
     33146      4970  TIP3      H2             29.9539781125       -6.6943129307      -29.9400921326  TIP3      4810            0.0000000000
     33147      4971  TIP3      OH2            34.7207309760       -9.2822339557      -23.9616737707  TIP3      4811            0.0000000000
     33148      4971  TIP3      H1             34.1514501106      -10.0534324905      -24.0553382952  TIP3      4811            0.0000000000
     33149      4971  TIP3      H2             35.3856276320       -9.5260542490      -24.6373722588  TIP3      4811            0.0000000000
     33150      4972  TIP3      OH2            25.8732829843       -9.5321151468      -24.9517826776  TIP3      4812            0.0000000000
     33151      4972  TIP3      H1             25.5262782936      -10.4435260110      -25.0485396667  TIP3      4812            0.0000000000
     33152      4972  TIP3      H2             26.7520976490       -9.6092186651      -25.3338720210  TIP3      4812            0.0000000000
     33153      4973  TIP3      OH2            29.1527505119      -15.6596115540      -29.0105065663  TIP3      4813            0.0000000000
     33154      4973  TIP3      H1             28.8834252376      -14.7299471241      -28.8010442869  TIP3      4813            0.0000000000
     33155      4973  TIP3      H2             28.3095306238      -16.1122873982      -29.1914448909  TIP3      4813            0.0000000000
     33156      4974  TIP3      OH2            29.9556195168      -11.4788450344      -25.2328154816  TIP3      4814            0.0000000000
     33157      4974  TIP3      H1             29.6930977885      -11.7357305032      -24.3377606696  TIP3      4814            0.0000000000
     33158      4974  TIP3      H2             29.1371770100      -11.7098013275      -25.7271760187  TIP3      4814            0.0000000000
     33159      4975  TIP3      OH2            32.5694509349      -12.0645364902      -25.6356162637  TIP3      4815            0.0000000000
     33160      4975  TIP3      H1             31.6597295363      -12.4085109121      -25.6836967926  TIP3      4815            0.0000000000
     33161      4975  TIP3      H2             33.0552040640      -12.7225803546      -25.0945993459  TIP3      4815            0.0000000000
     33162      4976  TIP3      OH2            34.4213832825      -13.4306825027      -24.2012189935  TIP3      4816            0.0000000000
     33163      4976  TIP3      H1             34.4816369567      -14.4109132447      -24.2024000883  TIP3      4816            0.0000000000
     33164      4976  TIP3      H2             34.6287356931      -13.1901875792      -23.2793604297  TIP3      4816            0.0000000000
     33165      4977  TIP3      OH2            24.4240045980      -12.0404991458      -24.8015461017  TIP3      4817            0.0000000000
     33166      4977  TIP3      H1             24.4933881769      -12.8945175833      -25.2511857721  TIP3      4817            0.0000000000
     33167      4977  TIP3      H2             24.8620488929      -12.2453968635      -23.9463276083  TIP3      4817            0.0000000000
     33168      4978  TIP3      OH2            29.9632973610      -15.3864988867      -26.3364775756  TIP3      4818            0.0000000000
     33169      4978  TIP3      H1             29.5747905736      -15.9834270010      -25.6537268056  TIP3      4818            0.0000000000
     33170      4978  TIP3      H2             29.4762574928      -15.6638013021      -27.1343658716  TIP3      4818            0.0000000000
     33171      4979  TIP3      OH2            29.5606901899      -13.9952636096      -23.3331696821  TIP3      4819            0.0000000000
     33172      4979  TIP3      H1             29.9949313460      -14.6394418218      -23.9198050134  TIP3      4819            0.0000000000
     33173      4979  TIP3      H2             28.6534224483      -14.3208789453      -23.3675954179  TIP3      4819            0.0000000000
     33174      4980  TIP3      OH2            29.0187475303        2.3924575632      -41.1054335610  TIP3      4820            0.0000000000
     33175      4980  TIP3      H1             29.9171809861        2.7108055870      -40.9006737570  TIP3      4820            0.0000000000
     33176      4980  TIP3      H2             29.0879001278        2.4295258102      -42.0922199395  TIP3      4820            0.0000000000
     33177      4981  TIP3      OH2            22.6928473432       -3.0393856649      -41.1801551867  TIP3      4821            0.0000000000
     33178      4981  TIP3      H1             23.6422838927       -2.7733923806      -41.1468963354  TIP3      4821            0.0000000000
     33179      4981  TIP3      H2             22.5978232093       -3.3352748697      -42.1036532332  TIP3      4821            0.0000000000
     33180      4982  TIP3      OH2            21.3207325723        2.0362900488      -36.4665268859  TIP3      4822            0.0000000000
     33181      4982  TIP3      H1             20.6277118345        1.4150131235      -36.7703203796  TIP3      4822            0.0000000000
     33182      4982  TIP3      H2             21.6518843492        1.5934976392      -35.6608213147  TIP3      4822            0.0000000000
     33183      4983  TIP3      OH2            22.4161967102        0.6649373331      -34.3130367075  TIP3      4823            0.0000000000
     33184      4983  TIP3      H1             22.8001773486        0.0656891829      -34.9902301988  TIP3      4823            0.0000000000
     33185      4983  TIP3      H2             23.0831674317        0.6649598625      -33.5974310089  TIP3      4823            0.0000000000
     33186      4984  TIP3      OH2            22.4057502386       -6.2764372414      -31.5431313251  TIP3      4824            0.0000000000
     33187      4984  TIP3      H1             22.3330567704       -6.5951641407      -32.4634774103  TIP3      4824            0.0000000000
     33188      4984  TIP3      H2             23.3837484154       -6.2477937350      -31.4170946707  TIP3      4824            0.0000000000
     33189      4985  TIP3      OH2            21.7085683969      -11.3705419916      -25.8433309513  TIP3      4825            0.0000000000
     33190      4985  TIP3      H1             22.6390534611      -11.3533450750      -25.5289647652  TIP3      4825            0.0000000000
     33191      4985  TIP3      H2             21.3294653469      -12.1346387804      -25.3819737813  TIP3      4825            0.0000000000
     33192      4986  TIP3      OH2            22.0062956541      -14.2400406172      -32.1491407284  TIP3      4826            0.0000000000
     33193      4986  TIP3      H1             22.9307625646      -14.2058245871      -31.8027192553  TIP3      4826            0.0000000000
     33194      4986  TIP3      H2             22.1033130177      -13.5520918340      -32.8551865851  TIP3      4826            0.0000000000
     33195      4987  TIP3      OH2            21.3057007009       -9.9177901696      -31.9259983744  TIP3      4827            0.0000000000
     33196      4987  TIP3      H1             21.2560078766      -10.0105451542      -32.8910981164  TIP3      4827            0.0000000000
     33197      4987  TIP3      H2             20.8114668871       -9.1058071025      -31.7522217404  TIP3      4827            0.0000000000
     33198      4988  TIP3      OH2            21.9938707859      -14.0370915321      -37.8843253492  TIP3      4828            0.0000000000
     33199      4988  TIP3      H1             21.1893306513      -13.5328969322      -37.6178718201  TIP3      4828            0.0000000000
     33200      4988  TIP3      H2             22.2356426664      -13.5026297576      -38.6621119315  TIP3      4828            0.0000000000
     33201      4989  TIP3      OH2            22.0083466454      -15.2754097125      -29.2495618752  TIP3      4829            0.0000000000
     33202      4989  TIP3      H1             21.4599635383      -15.5451660846      -28.4905225596  TIP3      4829            0.0000000000
     33203      4989  TIP3      H2             21.4079339334      -14.7795016656      -29.8283834319  TIP3      4829            0.0000000000
     33204      4990  TIP3      OH2            23.2583064548       -1.7448963463      -24.9322885685  TIP3      4830            0.0000000000
     33205      4990  TIP3      H1             23.4380736239       -2.1217561838      -25.8105480675  TIP3      4830            0.0000000000
     33206      4990  TIP3      H2             23.2144252449       -2.5301400683      -24.3597279924  TIP3      4830            0.0000000000
     33207      4991  TIP3      OH2            26.5217061309       -0.9586703569      -29.7293591822  TIP3      4831            0.0000000000
     33208      4991  TIP3      H1             26.5539839778       -0.3842682822      -28.9295011912  TIP3      4831            0.0000000000
     33209      4991  TIP3      H2             27.4454987286       -0.8141310120      -30.0087850993  TIP3      4831            0.0000000000
     33210      4992  TIP3      OH2            31.3131259026        0.0430436958      -26.2044900576  TIP3      4832            0.0000000000
     33211      4992  TIP3      H1             31.0745303455       -0.1040691922      -25.2789573430  TIP3      4832            0.0000000000
     33212      4992  TIP3      H2             31.5520649331        0.9975190012      -26.1624470558  TIP3      4832            0.0000000000
     33213      4993  TIP3      OH2            34.3825337637        1.8107380881      -26.4450853433  TIP3      4833            0.0000000000
     33214      4993  TIP3      H1             33.7899368932        1.1459595628      -26.8254940892  TIP3      4833            0.0000000000
     33215      4993  TIP3      H2             33.6954900939        2.3500504960      -25.9854859422  TIP3      4833            0.0000000000
     33216      4994  TIP3      OH2            23.6638543738        2.3370022931      -28.7021835651  TIP3      4834            0.0000000000
     33217      4994  TIP3      H1             24.1023259909        3.0560426680      -29.2016026182  TIP3      4834            0.0000000000
     33218      4994  TIP3      H2             24.4120758867        2.0657037242      -28.1359086709  TIP3      4834            0.0000000000
     33219      4995  TIP3      OH2            26.0869245569        2.9189492680      -30.1540132007  TIP3      4835            0.0000000000
     33220      4995  TIP3      H1             26.4587708622        2.5016891166      -29.3340301158  TIP3      4835            0.0000000000
     33221      4995  TIP3      H2             25.8237346000        2.1202629962      -30.6233156143  TIP3      4835            0.0000000000
     33222      4996  TIP3      OH2            30.7017394290        0.9511163294      -30.3776277410  TIP3      4836            0.0000000000
     33223      4996  TIP3      H1             31.3905247569        1.5594372911      -30.7166609487  TIP3      4836            0.0000000000
     33224      4996  TIP3      H2             30.3586963157        1.5231460470      -29.6605973536  TIP3      4836            0.0000000000
     33225      4997  TIP3      OH2            33.8932293319        0.6622375025      -29.8558419261  TIP3      4837            0.0000000000
     33226      4997  TIP3      H1             33.3514973446        1.4266772268      -30.1398866416  TIP3      4837            0.0000000000
     33227      4997  TIP3      H2             34.6098916382        1.0952076656      -29.3853863372  TIP3      4837            0.0000000000
     33228      4998  TIP3      OH2            23.8035962879        0.7564148053      -31.9390274637  TIP3      4838            0.0000000000
     33229      4998  TIP3      H1             23.6731569483        0.1663196071      -31.1648675586  TIP3      4838            0.0000000000
     33230      4998  TIP3      H2             24.6628346220        0.4248749104      -32.2604296104  TIP3      4838            0.0000000000
     33231      4999  TIP3      OH2            25.8406779426       -0.4399140332      -33.5144098608  TIP3      4839            0.0000000000
     33232      4999  TIP3      H1             25.4531241907       -1.3079235077      -33.2535809464  TIP3      4839            0.0000000000
     33233      4999  TIP3      H2             26.6457239616       -0.5174308389      -32.9599178062  TIP3      4839            0.0000000000
     33234      5000  TIP3      OH2            28.2099221514        0.1784569505      -31.9724856261  TIP3      4840            0.0000000000
     33235      5000  TIP3      H1             28.8471105269       -0.4878662460      -32.2758456134  TIP3      4840            0.0000000000
     33236      5000  TIP3      H2             28.7228989436        0.5086997956      -31.2101326562  TIP3      4840            0.0000000000
     33237      5001  TIP3      OH2            32.2623809977      -14.2840130466      -33.9556090461  TIP3      4841            0.0000000000
     33238      5001  TIP3      H1             31.4761190953      -14.0930062432      -33.4354916714  TIP3      4841            0.0000000000
     33239      5001  TIP3      H2             32.8738966961      -14.4876062005      -33.2133114303  TIP3      4841            0.0000000000
     33240      5002  TIP3      OH2            24.5173680596      -15.4544404934      -35.2050983195  TIP3      4842            0.0000000000
     33241      5002  TIP3      H1             23.6670890829      -15.5915508330      -35.6654042011  TIP3      4842            0.0000000000
     33242      5002  TIP3      H2             25.0122444710      -16.2695908869      -35.4690960647  TIP3      4842            0.0000000000
     33243      5003  TIP3      OH2            22.8908488088      -15.7326672502      -39.8650199499  TIP3      4843            0.0000000000
     33244      5003  TIP3      H1             23.6160047967      -15.1359638496      -40.1636174982  TIP3      4843            0.0000000000
     33245      5003  TIP3      H2             22.5351563043      -15.2563446052      -39.0806163750  TIP3      4843            0.0000000000
     33246      5004  TIP3      OH2            28.7653576030      -15.6044375132      -35.5951978246  TIP3      4844            0.0000000000
     33247      5004  TIP3      H1             29.6129370578      -15.7512316526      -36.0503551680  TIP3      4844            0.0000000000
     33248      5004  TIP3      H2             29.0941935592      -15.4394074494      -34.6878018106  TIP3      4844            0.0000000000
     33249      5005  TIP3      OH2            34.5685287378      -15.8904072873      -34.1616156449  TIP3      4845            0.0000000000
     33250      5005  TIP3      H1             34.1108395347      -15.1231023722      -34.5337091221  TIP3      4845            0.0000000000
     33251      5005  TIP3      H2             33.8553818524      -16.2553619000      -33.5793760715  TIP3      4845            0.0000000000
     33252      5006  TIP3      OH2            22.9902999747        0.6393837470      -38.7885019718  TIP3      4846            0.0000000000
     33253      5006  TIP3      H1             22.1434591614        0.7229502701      -39.2556472890  TIP3      4846            0.0000000000
     33254      5006  TIP3      H2             23.3921710127        1.4854678713      -39.0715505449  TIP3      4846            0.0000000000
     33255      5007  TIP3      OH2            24.8580922749      -14.5145071369      -41.1221666709  TIP3      4847            0.0000000000
     33256      5007  TIP3      H1             25.6464479384      -14.6611182724      -41.6534658034  TIP3      4847            0.0000000000
     33257      5007  TIP3      H2             25.0695938434      -13.6477369046      -40.7505200939  TIP3      4847            0.0000000000
     33258      5008  TIP3      OH2            29.7051420729      -12.9545346274      -38.3921299600  TIP3      4848            0.0000000000
     33259      5008  TIP3      H1             30.1038470773      -13.6094659904      -37.7868850452  TIP3      4848            0.0000000000
     33260      5008  TIP3      H2             30.1184440605      -12.1363459750      -38.0213278807  TIP3      4848            0.0000000000
     33261      5009  TIP3      OH2            31.7280281981        2.3874654030      -40.5919130408  TIP3      4849            0.0000000000
     33262      5009  TIP3      H1             32.6987024076        2.3547230661      -40.4328134634  TIP3      4849            0.0000000000
     33263      5009  TIP3      H2             31.6929582465        1.5555426471      -41.1122462287  TIP3      4849            0.0000000000
     33264      5010  TIP3      OH2            24.0037455712      -15.1053133647      -26.1440946311  TIP3      4850            0.0000000000
     33265      5010  TIP3      H1             23.5544619528      -15.9690695094      -26.1018133751  TIP3      4850            0.0000000000
     33266      5010  TIP3      H2             24.7463887653      -15.2387491862      -25.5077976187  TIP3      4850            0.0000000000
     33267      5011  TIP3      OH2            25.8261907227      -15.3188086442      -24.2647242331  TIP3      4851            0.0000000000
     33268      5011  TIP3      H1             26.6497812699      -15.3325541963      -24.7854022341  TIP3      4851            0.0000000000
     33269      5011  TIP3      H2             26.1192258669      -15.9518247604      -23.5888053865  TIP3      4851            0.0000000000
     33270      5012  TIP3      OH2            25.1434018230        2.0835467189      -41.3146508646  TIP3      4852            0.0000000000
     33271      5012  TIP3      H1             24.2253609313        2.1763857725      -41.0019641865  TIP3      4852            0.0000000000
     33272      5012  TIP3      H2             25.1776960975        1.1405037849      -41.5005540999  TIP3      4852            0.0000000000
     33273      5013  TIP3      OH2            34.2026214130      -16.1182486048      -24.1892213569  TIP3      4853            0.0000000000
     33274      5013  TIP3      H1             33.7780475771      -16.0009024385      -23.3104159394  TIP3      4853            0.0000000000
     33275      5013  TIP3      H2             34.7249415784      -16.9097211238      -24.0422108775  TIP3      4853            0.0000000000
     33276      5014  TIP3      OH2           -23.2012922526       12.5753383049      -35.5962814078  TIP3      4854            0.0000000000
     33277      5014  TIP3      H1            -23.2444896043       13.5392076293      -35.4666674791  TIP3      4854            0.0000000000
     33278      5014  TIP3      H2            -23.9402988892       12.4586657218      -36.2190925324  TIP3      4854            0.0000000000
     33279      5015  TIP3      OH2           -24.3660457792       11.6945600709      -32.1816726122  TIP3      4855            0.0000000000
     33280      5015  TIP3      H1            -24.8230852141       11.2521409216      -31.4312973632  TIP3      4855            0.0000000000
     33281      5015  TIP3      H2            -24.8450493329       11.2746078928      -32.9174957668  TIP3      4855            0.0000000000
     33282      5016  TIP3      OH2           -31.6479276821       11.3263664863      -30.8098617447  TIP3      4856            0.0000000000
     33283      5016  TIP3      H1            -31.7476027682       10.6302663455      -30.1325496971  TIP3      4856            0.0000000000
     33284      5016  TIP3      H2            -30.6743679175       11.4023571827      -30.9138991213  TIP3      4856            0.0000000000
     33285      5017  TIP3      OH2           -20.4040536323       14.9132812676      -33.6811935623  TIP3      4857            0.0000000000
     33286      5017  TIP3      H1            -20.4900939892       14.0864415071      -33.1803023030  TIP3      4857            0.0000000000
     33287      5017  TIP3      H2            -20.6924995933       15.5690591573      -33.0134351645  TIP3      4857            0.0000000000
     33288      5018  TIP3      OH2           -30.9707392482       15.2157914017      -31.4524029204  TIP3      4858            0.0000000000
     33289      5018  TIP3      H1            -31.3441784356       15.1431228429      -32.3502899417  TIP3      4858            0.0000000000
     33290      5018  TIP3      H2            -30.1010114137       15.6267117012      -31.6366285575  TIP3      4858            0.0000000000
     33291      5019  TIP3      OH2           -34.4521349915        9.2330543978      -36.9468219289  TIP3      4859            0.0000000000
     33292      5019  TIP3      H1            -33.9175032736        9.8941783269      -36.4620164617  TIP3      4859            0.0000000000
     33293      5019  TIP3      H2            -35.3446299300        9.5759335590      -36.7595749578  TIP3      4859            0.0000000000
     33294      5020  TIP3      OH2           -33.4407225700       10.8523728043      -34.7672815300  TIP3      4860            0.0000000000
     33295      5020  TIP3      H1            -34.1752137378       10.7251219027      -34.1362090592  TIP3      4860            0.0000000000
     33296      5020  TIP3      H2            -33.3569260683       11.8229553219      -34.7856423726  TIP3      4860            0.0000000000
     33297      5021  TIP3      OH2           -23.4646860559       20.0629135676      -33.8435801364  TIP3      4861            0.0000000000
     33298      5021  TIP3      H1            -22.7359058264       19.9181478010      -34.4857098940  TIP3      4861            0.0000000000
     33299      5021  TIP3      H2            -23.4671179097       19.2294596169      -33.3423172472  TIP3      4861            0.0000000000
     33300      5022  TIP3      OH2           -25.6341569009       14.0591351948      -31.6885290487  TIP3      4862            0.0000000000
     33301      5022  TIP3      H1            -24.9496829731       13.4246460707      -31.9778670578  TIP3      4862            0.0000000000
     33302      5022  TIP3      H2            -25.1477851647       14.5179742495      -30.9884404804  TIP3      4862            0.0000000000
     33303      5023  TIP3      OH2           -17.4637079713        5.7293838563      -31.6075001757  TIP3      4863            0.0000000000
     33304      5023  TIP3      H1            -17.3922512857        6.0158483042      -30.6788249465  TIP3      4863            0.0000000000
     33305      5023  TIP3      H2            -16.5649036030        5.9254074153      -31.9370280014  TIP3      4863            0.0000000000
     33306      5024  TIP3      OH2           -22.8723133914        8.7002378846      -31.0276643352  TIP3      4864            0.0000000000
     33307      5024  TIP3      H1            -22.7304405057        7.7335653470      -31.0954477085  TIP3      4864            0.0000000000
     33308      5024  TIP3      H2            -23.3610789468        8.8482764367      -31.8550734544  TIP3      4864            0.0000000000
     33309      5025  TIP3      OH2           -30.4128639248        6.1355728297      -34.2966158755  TIP3      4865            0.0000000000
     33310      5025  TIP3      H1            -29.5334793220        6.5400166422      -34.1228638699  TIP3      4865            0.0000000000
     33311      5025  TIP3      H2            -30.1755673833        5.6385591964      -35.1137506615  TIP3      4865            0.0000000000
     33312      5026  TIP3      OH2           -21.9663306671        7.2301241612      -35.7399544744  TIP3      4866            0.0000000000
     33313      5026  TIP3      H1            -21.3598953389        6.6688804904      -35.1958767896  TIP3      4866            0.0000000000
     33314      5026  TIP3      H2            -21.3285687460        7.7080280812      -36.3053945270  TIP3      4866            0.0000000000
     33315      5027  TIP3      OH2           -33.1752491437        8.4508570174      -33.5401377628  TIP3      4867            0.0000000000
     33316      5027  TIP3      H1            -32.4952287945        8.2733922395      -32.8544864816  TIP3      4867            0.0000000000
     33317      5027  TIP3      H2            -32.9302784811        9.3659936293      -33.8135764068  TIP3      4867            0.0000000000
     33318      5028  TIP3      OH2           -27.7637616706       10.9751938733      -34.0898761877  TIP3      4868            0.0000000000
     33319      5028  TIP3      H1            -27.1327404643       10.3434439893      -33.7067879855  TIP3      4868            0.0000000000
     33320      5028  TIP3      H2            -28.1146533676       10.3500827769      -34.7703148277  TIP3      4868            0.0000000000
     33321      5029  TIP3      OH2           -17.3992647598        7.0850407576      -29.1688798732  TIP3      4869            0.0000000000
     33322      5029  TIP3      H1            -17.7820821999        7.7855132921      -28.6051308250  TIP3      4869            0.0000000000
     33323      5029  TIP3      H2            -16.5747801684        6.8831746624      -28.7037957924  TIP3      4869            0.0000000000
     33324      5030  TIP3      OH2           -30.2546120175        5.7750098170      -29.9907263087  TIP3      4870            0.0000000000
     33325      5030  TIP3      H1            -30.5353530766        6.3816016257      -30.7044265535  TIP3      4870            0.0000000000
     33326      5030  TIP3      H2            -30.9849370369        5.9155553459      -29.3583781211  TIP3      4870            0.0000000000
     33327      5031  TIP3      OH2           -23.8428074965       15.0866447036      -36.7064294640  TIP3      4871            0.0000000000
     33328      5031  TIP3      H1            -24.1356411057       15.0900426719      -37.6374651322  TIP3      4871            0.0000000000
     33329      5031  TIP3      H2            -23.9150346782       16.0338921818      -36.5011802054  TIP3      4871            0.0000000000
     33330      5032  TIP3      OH2           -28.0788413021       13.5485377022      -30.2676568512  TIP3      4872            0.0000000000
     33331      5032  TIP3      H1            -28.4992767609       14.2066710758      -29.6822091180  TIP3      4872            0.0000000000
     33332      5032  TIP3      H2            -27.3880004178       14.0865083791      -30.6987342362  TIP3      4872            0.0000000000
     33333      5033  TIP3      OH2           -20.4142902450        5.5478937516      -34.4005362518  TIP3      4873            0.0000000000
     33334      5033  TIP3      H1            -21.0664417619        4.8575176120      -34.1379493205  TIP3      4873            0.0000000000
     33335      5033  TIP3      H2            -19.6792940533        5.3113113396      -33.8243403881  TIP3      4873            0.0000000000
     33336      5034  TIP3      OH2           -31.1502328519        7.5764120577      -32.0471012819  TIP3      4874            0.0000000000
     33337      5034  TIP3      H1            -30.3897693577        8.1967315983      -32.0061763439  TIP3      4874            0.0000000000
     33338      5034  TIP3      H2            -30.8196723677        7.1032883962      -32.8476254688  TIP3      4874            0.0000000000
     33339      5035  TIP3      OH2           -30.3071355849       15.0895722583      -28.9220678114  TIP3      4875            0.0000000000
     33340      5035  TIP3      H1            -30.4887092189       15.1621810762      -29.8919505114  TIP3      4875            0.0000000000
     33341      5035  TIP3      H2            -31.2038485159       15.2054240743      -28.5785029246  TIP3      4875            0.0000000000
     33342      5036  TIP3      OH2           -33.9958199372       14.8179413675      -38.7066995373  TIP3      4876            0.0000000000
     33343      5036  TIP3      H1            -34.3194963117       15.0828173815      -39.5973412365  TIP3      4876            0.0000000000
     33344      5036  TIP3      H2            -33.7910459853       15.6946302597      -38.3086379515  TIP3      4876            0.0000000000
     33345      5037  TIP3      OH2           -20.3713464487       16.8217481704      -31.8071101197  TIP3      4877            0.0000000000
     33346      5037  TIP3      H1            -21.2308797478       17.1151796817      -31.4089722745  TIP3      4877            0.0000000000
     33347      5037  TIP3      H2            -20.1059578198       17.6744669631      -32.2049265629  TIP3      4877            0.0000000000
     33348      5038  TIP3      OH2           -20.0262477757        5.6006752726      -30.2358628664  TIP3      4878            0.0000000000
     33349      5038  TIP3      H1            -20.7620958067        5.7643811741      -30.8607107134  TIP3      4878            0.0000000000
     33350      5038  TIP3      H2            -19.5166099471        4.8574299890      -30.6094897107  TIP3      4878            0.0000000000
     33351      5039  TIP3      OH2           -27.3640100971        2.8560175672      -32.6453435553  TIP3      4879            0.0000000000
     33352      5039  TIP3      H1            -27.6997666400        1.9906555260      -32.3453318152  TIP3      4879            0.0000000000
     33353      5039  TIP3      H2            -28.1515756727        3.4042058322      -32.4121387618  TIP3      4879            0.0000000000
     33354      5040  TIP3      OH2           -21.6653305999       18.3238255152      -34.9333998704  TIP3      4880            0.0000000000
     33355      5040  TIP3      H1            -21.5691752113       17.6870647856      -35.6698135878  TIP3      4880            0.0000000000
     33356      5040  TIP3      H2            -20.9180920642       18.9462232801      -35.0911208791  TIP3      4880            0.0000000000
     33357      5041  TIP3      OH2           -20.8833736162       16.2960473030      -36.6061752638  TIP3      4881            0.0000000000
     33358      5041  TIP3      H1            -21.0569680974       15.5136438106      -37.1573088474  TIP3      4881            0.0000000000
     33359      5041  TIP3      H2            -20.4968552807       15.9030399307      -35.8082241844  TIP3      4881            0.0000000000
     33360      5042  TIP3      OH2           -18.6890853313       15.0398199387      -27.7015387804  TIP3      4882            0.0000000000
     33361      5042  TIP3      H1            -18.8585676709       14.2456080093      -28.2536863617  TIP3      4882            0.0000000000
     33362      5042  TIP3      H2            -18.9329219327       15.7303593005      -28.3457764724  TIP3      4882            0.0000000000
     33363      5043  TIP3      OH2           -24.4474231437       12.0716041726      -38.2421361314  TIP3      4883            0.0000000000
     33364      5043  TIP3      H1            -25.2337173647       12.5946601790      -38.5173134712  TIP3      4883            0.0000000000
     33365      5043  TIP3      H2            -23.7661503063       12.3941178983      -38.8660722721  TIP3      4883            0.0000000000
     33366      5044  TIP3      OH2           -24.5565141973       10.5033651883      -41.0208413919  TIP3      4884            0.0000000000
     33367      5044  TIP3      H1            -23.9682783053       10.6452245576      -40.2658338368  TIP3      4884            0.0000000000
     33368      5044  TIP3      H2            -23.9163842494       10.3257668478      -41.7254809633  TIP3      4884            0.0000000000
     33369      5045  TIP3      OH2           -17.0559800449       11.4484125599      -30.1035095045  TIP3      4885            0.0000000000
     33370      5045  TIP3      H1            -17.7442762083       12.1134213632      -29.8879844712  TIP3      4885            0.0000000000
     33371      5045  TIP3      H2            -16.4495084940       11.9486524951      -30.6886357463  TIP3      4885            0.0000000000
     33372      5046  TIP3      OH2           -20.9634113442       11.5368844943      -36.9389359937  TIP3      4886            0.0000000000
     33373      5046  TIP3      H1            -21.6487489112       11.9804126929      -36.3894571386  TIP3      4886            0.0000000000
     33374      5046  TIP3      H2            -20.2663904379       11.3205408985      -36.3060481771  TIP3      4886            0.0000000000
     33375      5047  TIP3      OH2           -21.6109606808        9.7802919844      -27.5973788474  TIP3      4887            0.0000000000
     33376      5047  TIP3      H1            -22.2573834990       10.3752244527      -27.1553583016  TIP3      4887            0.0000000000
     33377      5047  TIP3      H2            -21.8002122931       10.0335765810      -28.5313419255  TIP3      4887            0.0000000000
     33378      5048  TIP3      OH2           -29.4937733224       12.1608214017      -35.7232244525  TIP3      4888            0.0000000000
     33379      5048  TIP3      H1            -29.1797277963       11.9892373531      -36.6276734605  TIP3      4888            0.0000000000
     33380      5048  TIP3      H2            -28.8033863783       11.7350075114      -35.1642704249  TIP3      4888            0.0000000000
     33381      5049  TIP3      OH2           -27.7731341637       15.8862782266      -33.7326534700  TIP3      4889            0.0000000000
     33382      5049  TIP3      H1            -27.4683266367       15.0119578724      -33.4675333275  TIP3      4889            0.0000000000
     33383      5049  TIP3      H2            -27.7226644415       16.3150782492      -32.8500424575  TIP3      4889            0.0000000000
     33384      5050  TIP3      OH2           -29.1780002957       11.3947971032      -31.6874909495  TIP3      4890            0.0000000000
     33385      5050  TIP3      H1            -28.7914973732       11.2713236170      -32.5769585294  TIP3      4890            0.0000000000
     33386      5050  TIP3      H2            -28.5938942954       12.0812332162      -31.2882557902  TIP3      4890            0.0000000000
     33387      5051  TIP3      OH2           -22.6169009113       17.3862811084      -30.6145185016  TIP3      4891            0.0000000000
     33388      5051  TIP3      H1            -23.0671183384       18.0155087652      -30.0153019364  TIP3      4891            0.0000000000
     33389      5051  TIP3      H2            -23.0020066447       16.5282224377      -30.3580036701  TIP3      4891            0.0000000000
     33390      5052  TIP3      OH2           -28.2829327301       15.8275674415      -27.2280995463  TIP3      4892            0.0000000000
     33391      5052  TIP3      H1            -28.9145049757       16.3758803703      -26.7119939218  TIP3      4892            0.0000000000
     33392      5052  TIP3      H2            -28.8720732608       15.5914585274      -27.9880495462  TIP3      4892            0.0000000000
     33393      5053  TIP3      OH2           -22.0080637863       11.7687678021      -39.4864640001  TIP3      4893            0.0000000000
     33394      5053  TIP3      H1            -21.5802694806       12.0230348858      -38.6270035077  TIP3      4893            0.0000000000
     33395      5053  TIP3      H2            -21.4681712913       12.2908874581      -40.0845269151  TIP3      4893            0.0000000000
     33396      5054  TIP3      OH2           -31.1401553578       11.9374962922      -27.6941084108  TIP3      4894            0.0000000000
     33397      5054  TIP3      H1            -31.3225915240       12.7461750349      -27.1916032814  TIP3      4894            0.0000000000
     33398      5054  TIP3      H2            -32.0279906546       11.6607961175      -27.9859647383  TIP3      4894            0.0000000000
     33399      5055  TIP3      OH2           -24.7111196790       17.8808837759      -35.5340443262  TIP3      4895            0.0000000000
     33400      5055  TIP3      H1            -24.0400183668       18.4463575008      -35.1340182751  TIP3      4895            0.0000000000
     33401      5055  TIP3      H2            -24.8526340925       18.2621496972      -36.4049627757  TIP3      4895            0.0000000000
     33402      5056  TIP3      OH2           -29.8348519513       17.6067289647      -26.1080805747  TIP3      4896            0.0000000000
     33403      5056  TIP3      H1            -29.7776611397       18.0323223219      -26.9999570551  TIP3      4896            0.0000000000
     33404      5056  TIP3      H2            -30.7894787813       17.4483153526      -26.0732573556  TIP3      4896            0.0000000000
     33405      5057  TIP3      OH2           -18.1047611405        2.8668488550      -39.2419342015  TIP3      4897            0.0000000000
     33406      5057  TIP3      H1            -19.0813376630        2.9913932422      -39.2717508593  TIP3      4897            0.0000000000
     33407      5057  TIP3      H2            -17.7980329540        3.7764662584      -39.4142970445  TIP3      4897            0.0000000000
     33408      5058  TIP3      OH2           -30.6901561963       11.4630330641      -38.1201008406  TIP3      4898            0.0000000000
     33409      5058  TIP3      H1            -30.9316335111       12.3725214928      -38.4219423691  TIP3      4898            0.0000000000
     33410      5058  TIP3      H2            -30.9857048546       11.5144061870      -37.1969252353  TIP3      4898            0.0000000000
     33411      5059  TIP3      OH2           -17.3541683454       16.8790507682      -41.5763423264  TIP3      4899            0.0000000000
     33412      5059  TIP3      H1            -18.0063241191       17.5378823678      -41.8386873445  TIP3      4899            0.0000000000
     33413      5059  TIP3      H2            -17.5642233584       16.7980953538      -40.6137867822  TIP3      4899            0.0000000000
     33414      5060  TIP3      OH2           -33.8928037443       14.2203800673      -28.9489766436  TIP3      4900            0.0000000000
     33415      5060  TIP3      H1            -34.5799880758       14.4696806918      -29.5963194520  TIP3      4900            0.0000000000
     33416      5060  TIP3      H2            -34.1358220075       13.2910164243      -28.7720662992  TIP3      4900            0.0000000000
     33417      5061  TIP3      OH2           -34.3200525192       16.2247449174      -31.9462863542  TIP3      4901            0.0000000000
     33418      5061  TIP3      H1            -33.3721108300       16.3653023015      -32.0707445510  TIP3      4901            0.0000000000
     33419      5061  TIP3      H2            -34.5791520831       16.7149323420      -31.1441114533  TIP3      4901            0.0000000000
     33420      5062  TIP3      OH2           -16.1928431714       17.2304434117      -26.4970021706  TIP3      4902            0.0000000000
     33421      5062  TIP3      H1            -16.4084497147       16.3091885122      -26.7018486281  TIP3      4902            0.0000000000
     33422      5062  TIP3      H2            -17.0530003423       17.5640092342      -26.1640090882  TIP3      4902            0.0000000000
     33423      5063  TIP3      OH2           -25.7750421420       16.7653711666      -27.1896948628  TIP3      4903            0.0000000000
     33424      5063  TIP3      H1            -25.5934529915       17.5750053416      -27.6839585189  TIP3      4903            0.0000000000
     33425      5063  TIP3      H2            -26.7522810841       16.6758405088      -27.2533530053  TIP3      4903            0.0000000000
     33426      5064  TIP3      OH2           -25.4378563259       20.5631313126      -37.3932662778  TIP3      4904            0.0000000000
     33427      5064  TIP3      H1            -24.8758976610       19.8554101966      -37.7662220544  TIP3      4904            0.0000000000
     33428      5064  TIP3      H2            -24.7393701869       21.0195564610      -36.8731378413  TIP3      4904            0.0000000000
     33429      5065  TIP3      OH2           -31.6258946865       19.6535100625      -36.0599195208  TIP3      4905            0.0000000000
     33430      5065  TIP3      H1            -31.3931470058       19.2551358234      -35.1921202735  TIP3      4905            0.0000000000
     33431      5065  TIP3      H2            -32.5225019869       19.2886377781      -36.2136067470  TIP3      4905            0.0000000000
     33432      5066  TIP3      OH2           -22.1620250805       20.5815093318      -40.5091256998  TIP3      4906            0.0000000000
     33433      5066  TIP3      H1            -21.3413704864       20.1662856389      -40.8399094856  TIP3      4906            0.0000000000
     33434      5066  TIP3      H2            -22.5381724978       19.8946390624      -39.9326174052  TIP3      4906            0.0000000000
     33435      5067  TIP3      OH2           -23.2212582410       18.9315215194      -38.1623436619  TIP3      4907            0.0000000000
     33436      5067  TIP3      H1            -22.5176654398       19.3743245399      -37.6692660877  TIP3      4907            0.0000000000
     33437      5067  TIP3      H2            -22.7094578966       18.2738695940      -38.6924674823  TIP3      4907            0.0000000000
     33438      5068  TIP3      OH2           -19.6842819853        8.7930838810      -25.5168487896  TIP3      4908            0.0000000000
     33439      5068  TIP3      H1            -20.4947690014        9.1438836983      -25.9350715346  TIP3      4908            0.0000000000
     33440      5068  TIP3      H2            -19.6209653314        7.8994986627      -25.9154979877  TIP3      4908            0.0000000000
     33441      5069  TIP3      OH2           -32.5069718357       15.7707875688      -27.4186562054  TIP3      4909            0.0000000000
     33442      5069  TIP3      H1            -32.1786041804       15.0108740197      -26.8922251543  TIP3      4909            0.0000000000
     33443      5069  TIP3      H2            -33.0952155292       15.3185072687      -28.0687766936  TIP3      4909            0.0000000000
     33444      5070  TIP3      OH2           -29.7541686591        3.8417773338      -31.7648084580  TIP3      4910            0.0000000000
     33445      5070  TIP3      H1            -30.5348911659        4.0696408432      -32.3084223997  TIP3      4910            0.0000000000
     33446      5070  TIP3      H2            -29.7649888021        4.5482023033      -31.0755100629  TIP3      4910            0.0000000000
     33447      5071  TIP3      OH2           -24.8059271733        3.5766254318      -28.5663217783  TIP3      4911            0.0000000000
     33448      5071  TIP3      H1            -24.5519121388        3.2754245135      -27.6715085002  TIP3      4911            0.0000000000
     33449      5071  TIP3      H2            -25.7888782566        3.5944871918      -28.5185821390  TIP3      4911            0.0000000000
     33450      5072  TIP3      OH2           -21.5728765340        7.1132873537      -27.2556402791  TIP3      4912            0.0000000000
     33451      5072  TIP3      H1            -22.1494793042        6.6522479283      -26.6058665694  TIP3      4912            0.0000000000
     33452      5072  TIP3      H2            -21.8722880483        8.0455613836      -27.1574589602  TIP3      4912            0.0000000000
     33453      5073  TIP3      OH2           -19.7925230784       12.0302617270      -41.8934701864  TIP3      4913            0.0000000000
     33454      5073  TIP3      H1            -20.3821479798       12.7775889101      -42.1321011222  TIP3      4913            0.0000000000
     33455      5073  TIP3      H2            -19.3761850067       12.3997612631      -41.0992586837  TIP3      4913            0.0000000000
     33456      5074  TIP3      OH2           -25.6999633633        6.1490267337      -40.5731582189  TIP3      4914            0.0000000000
     33457      5074  TIP3      H1            -24.8788686503        5.6379732947      -40.6996149212  TIP3      4914            0.0000000000
     33458      5074  TIP3      H2            -25.6519637570        6.6409694095      -41.4126584649  TIP3      4914            0.0000000000
     33459      5075  TIP3      OH2           -29.1290360427        9.2858806273      -29.8843888545  TIP3      4915            0.0000000000
     33460      5075  TIP3      H1            -30.0060113253        8.9137764953      -30.0791861576  TIP3      4915            0.0000000000
     33461      5075  TIP3      H2            -29.0080680890        9.8711907258      -30.6694781405  TIP3      4915            0.0000000000
     33462      5076  TIP3      OH2           -28.6418392341        9.5140527994      -36.1727557120  TIP3      4916            0.0000000000
     33463      5076  TIP3      H1            -29.5965088604        9.4294884559      -36.0391244561  TIP3      4916            0.0000000000
     33464      5076  TIP3      H2            -28.5379887568        8.9592739904      -36.9674723883  TIP3      4916            0.0000000000
     33465      5077  TIP3      OH2           -24.1540034345        9.4217788359      -37.4388886477  TIP3      4917            0.0000000000
     33466      5077  TIP3      H1            -24.1747317503       10.3989317077      -37.5082309917  TIP3      4917            0.0000000000
     33467      5077  TIP3      H2            -23.3913044667        9.1751737144      -38.0179181451  TIP3      4917            0.0000000000
     33468      5078  TIP3      OH2           -25.1258223441        9.4663701125      -24.7872860837  TIP3      4918            0.0000000000
     33469      5078  TIP3      H1            -25.5297844150        8.5790674625      -24.9082202659  TIP3      4918            0.0000000000
     33470      5078  TIP3      H2            -25.0721248856        9.7752693071      -25.7132554098  TIP3      4918            0.0000000000
     33471      5079  TIP3      OH2           -22.5872512090        9.3353687916      -34.0726069636  TIP3      4919            0.0000000000
     33472      5079  TIP3      H1            -23.3871010347        9.8671517557      -34.2352766705  TIP3      4919            0.0000000000
     33473      5079  TIP3      H2            -22.6282345623        8.6876880136      -34.8090540689  TIP3      4919            0.0000000000
     33474      5080  TIP3      OH2           -31.7974923502        8.9130767373      -29.2933470005  TIP3      4920            0.0000000000
     33475      5080  TIP3      H1            -31.2197702222        9.0285686177      -28.5296547983  TIP3      4920            0.0000000000
     33476      5080  TIP3      H2            -32.0829319764        7.9826036305      -29.1784075178  TIP3      4920            0.0000000000
     33477      5081  TIP3      OH2           -28.4422814962        6.9440116145      -41.5879680624  TIP3      4921            0.0000000000
     33478      5081  TIP3      H1            -28.6132742016        6.2120996534      -40.9641557893  TIP3      4921            0.0000000000
     33479      5081  TIP3      H2            -28.4401360336        7.6802868624      -40.9515334771  TIP3      4921            0.0000000000
     33480      5082  TIP3      OH2           -34.2332549586        5.9310238272      -34.4527403613  TIP3      4922            0.0000000000
     33481      5082  TIP3      H1            -34.0748305780        6.2476675544      -33.5395148058  TIP3      4922            0.0000000000
     33482      5082  TIP3      H2            -34.8424170062        5.1978268143      -34.2545867057  TIP3      4922            0.0000000000
     33483      5083  TIP3      OH2           -33.4451995225        7.3283935666      -39.4767708467  TIP3      4923            0.0000000000
     33484      5083  TIP3      H1            -32.9618487364        6.9771004419      -40.2535532591  TIP3      4923            0.0000000000
     33485      5083  TIP3      H2            -34.3494716746        7.1094629009      -39.7924411993  TIP3      4923            0.0000000000
     33486      5084  TIP3      OH2           -22.7709148880       11.0395115574      -29.8304341377  TIP3      4924            0.0000000000
     33487      5084  TIP3      H1            -22.8522019596       10.2606688935      -30.4206040761  TIP3      4924            0.0000000000
     33488      5084  TIP3      H2            -23.5624145209       10.9612043943      -29.2489335509  TIP3      4924            0.0000000000
     33489      5085  TIP3      OH2           -26.2302809119        6.7021561722      -34.6334450262  TIP3      4925            0.0000000000
     33490      5085  TIP3      H1            -27.0068797091        6.4411480475      -35.1856344562  TIP3      4925            0.0000000000
     33491      5085  TIP3      H2            -26.3917213486        6.1644841026      -33.8478935063  TIP3      4925            0.0000000000
     33492      5086  TIP3      OH2           -31.8518912091        8.3373599600      -35.9743881303  TIP3      4926            0.0000000000
     33493      5086  TIP3      H1            -32.6069571205        8.5808795623      -35.4059831795  TIP3      4926            0.0000000000
     33494      5086  TIP3      H2            -31.3165212732        7.8598722361      -35.3086627533  TIP3      4926            0.0000000000
     33495      5087  TIP3      OH2           -28.6255808607        8.1635212526      -38.4516597535  TIP3      4927            0.0000000000
     33496      5087  TIP3      H1            -27.7048743396        7.9976481012      -38.1182233576  TIP3      4927            0.0000000000
     33497      5087  TIP3      H2            -28.4681019617        8.6679700127      -39.2637416164  TIP3      4927            0.0000000000
     33498      5088  TIP3      OH2           -22.3603050201        6.1053864317      -31.6547770593  TIP3      4928            0.0000000000
     33499      5088  TIP3      H1            -22.8146529070        5.7725005314      -30.8480559823  TIP3      4928            0.0000000000
     33500      5088  TIP3      H2            -22.8635828167        5.6108318364      -32.3365367354  TIP3      4928            0.0000000000
     33501      5089  TIP3      OH2           -29.0696796381        9.4311731654      -41.0150108443  TIP3      4929            0.0000000000
     33502      5089  TIP3      H1            -29.5521026607        9.1560654734      -41.8191433111  TIP3      4929            0.0000000000
     33503      5089  TIP3      H2            -28.2916288720        9.8693915176      -41.4358815288  TIP3      4929            0.0000000000
     33504      5090  TIP3      OH2           -19.0200780680       21.6555191265      -24.7543570718  TIP3      4930            0.0000000000
     33505      5090  TIP3      H1            -18.9935687131       21.9112701105      -25.6945707644  TIP3      4930            0.0000000000
     33506      5090  TIP3      H2            -18.1691221075       22.0332265150      -24.4458827151  TIP3      4930            0.0000000000
     33507      5091  TIP3      OH2           -31.7719544321       13.9203066651      -25.6705327807  TIP3      4931            0.0000000000
     33508      5091  TIP3      H1            -30.9731356320       13.7139795431      -25.1171982594  TIP3      4931            0.0000000000
     33509      5091  TIP3      H2            -32.4851272201       13.7399201077      -25.0265718497  TIP3      4931            0.0000000000
     33510      5092  TIP3      OH2           -25.5132243424        9.2249573026      -33.2928462062  TIP3      4932            0.0000000000
     33511      5092  TIP3      H1            -25.6063500176        8.4739695940      -33.9210518295  TIP3      4932            0.0000000000
     33512      5092  TIP3      H2            -26.2051139802        8.9444214024      -32.6594865746  TIP3      4932            0.0000000000
     33513      5093  TIP3      OH2           -31.2997111029        5.2752128195      -37.0519771999  TIP3      4933            0.0000000000
     33514      5093  TIP3      H1            -31.4589360400        4.4348256721      -36.5580292823  TIP3      4933            0.0000000000
     33515      5093  TIP3      H2            -30.3171447165        5.3092601069      -36.9768901362  TIP3      4933            0.0000000000
     33516      5094  TIP3      OH2           -26.7459035057        7.7094333935      -30.0850050837  TIP3      4934            0.0000000000
     33517      5094  TIP3      H1            -27.4653780990        8.0950672647      -30.6317956875  TIP3      4934            0.0000000000
     33518      5094  TIP3      H2            -26.1414149155        8.4496973928      -29.9882525811  TIP3      4934            0.0000000000
     33519      5095  TIP3      OH2           -26.3919016869       13.7357835308      -38.8249846000  TIP3      4935            0.0000000000
     33520      5095  TIP3      H1            -27.2176957310       13.5171981776      -39.3065990391  TIP3      4935            0.0000000000
     33521      5095  TIP3      H2            -26.7893180990       13.9842329341      -37.9574119281  TIP3      4935            0.0000000000
     33522      5096  TIP3      OH2           -19.1080356405       13.2184403545      -29.7270790268  TIP3      4936            0.0000000000
     33523      5096  TIP3      H1            -18.7888285310       13.7709049947      -30.4827576510  TIP3      4936            0.0000000000
     33524      5096  TIP3      H2            -19.9828104864       12.9344521090      -30.0776529504  TIP3      4936            0.0000000000
     33525      5097  TIP3      OH2           -22.5144358399        6.6962205171      -39.9493512067  TIP3      4937            0.0000000000
     33526      5097  TIP3      H1            -22.9386670421        6.6777938799      -40.8372179468  TIP3      4937            0.0000000000
     33527      5097  TIP3      H2            -22.3009868951        7.6458438383      -39.8663030817  TIP3      4937            0.0000000000
     33528      5098  TIP3      OH2           -24.3537803044       14.3351966311      -27.2443794896  TIP3      4938            0.0000000000
     33529      5098  TIP3      H1            -24.6249170800       13.4675797969      -26.8814533475  TIP3      4938            0.0000000000
     33530      5098  TIP3      H2            -25.1685380617       14.8732888638      -27.1841601876  TIP3      4938            0.0000000000
     33531      5099  TIP3      OH2           -22.0205265162        9.1633676837      -38.9885668407  TIP3      4939            0.0000000000
     33532      5099  TIP3      H1            -21.1882137966        8.8911538587      -38.5728152160  TIP3      4939            0.0000000000
     33533      5099  TIP3      H2            -21.9268770339       10.1317447747      -39.1275416507  TIP3      4939            0.0000000000
     33534      5100  TIP3      OH2           -31.6205995675       13.2634635151      -33.4197816828  TIP3      4940            0.0000000000
     33535      5100  TIP3      H1            -31.2018193481       13.7118015612      -34.1682830554  TIP3      4940            0.0000000000
     33536      5100  TIP3      H2            -30.8827503960       12.8580952965      -32.9317384182  TIP3      4940            0.0000000000
     33537      5101  TIP3      OH2           -24.2536929221       15.1013707994      -39.5816478010  TIP3      4941            0.0000000000
     33538      5101  TIP3      H1            -24.5763810324       16.0189865572      -39.5819375730  TIP3      4941            0.0000000000
     33539      5101  TIP3      H2            -25.0745492422       14.5905142513      -39.4412864441  TIP3      4941            0.0000000000
     33540      5102  TIP3      OH2           -34.3425369193       11.6762533699      -27.8500841481  TIP3      4942            0.0000000000
     33541      5102  TIP3      H1            -34.1815537898       11.4275785181      -26.9150608250  TIP3      4942            0.0000000000
     33542      5102  TIP3      H2            -35.2542178905       11.4027936180      -28.0215906438  TIP3      4942            0.0000000000
     33543      5103  TIP3      OH2           -27.4710659901       11.1669521388      -25.5080326471  TIP3      4943            0.0000000000
     33544      5103  TIP3      H1            -27.9228704618       10.8782587174      -26.3304306614  TIP3      4943            0.0000000000
     33545      5103  TIP3      H2            -26.5373339127       11.1362484078      -25.7799017609  TIP3      4943            0.0000000000
     33546      5104  TIP3      OH2           -22.1207943298       16.3036116325      -27.3651048757  TIP3      4944            0.0000000000
     33547      5104  TIP3      H1            -23.0712516219       16.1227880078      -27.4654910212  TIP3      4944            0.0000000000
     33548      5104  TIP3      H2            -22.1504229819       17.2337762925      -27.0816235199  TIP3      4944            0.0000000000
     33549      5105  TIP3      OH2           -16.8605232112        8.7276039535      -38.9669102210  TIP3      4945            0.0000000000
     33550      5105  TIP3      H1            -17.4512497430        8.5193703000      -39.7260790893  TIP3      4945            0.0000000000
     33551      5105  TIP3      H2            -16.6908859214        9.6680059075      -39.2024348811  TIP3      4945            0.0000000000
     33552      5106  TIP3      OH2           -16.5358407836       14.2867350375      -26.0485967323  TIP3      4946            0.0000000000
     33553      5106  TIP3      H1            -17.4207044316       14.5415818398      -26.3932409911  TIP3      4946            0.0000000000
     33554      5106  TIP3      H2            -16.1308255537       13.9193359001      -26.8658512576  TIP3      4946            0.0000000000
     33555      5107  TIP3      OH2           -18.7619373398       16.6874113377      -39.1983514929  TIP3      4947            0.0000000000
     33556      5107  TIP3      H1            -19.6650936644       17.0074032730      -39.4269582595  TIP3      4947            0.0000000000
     33557      5107  TIP3      H2            -18.5633320745       17.2115833212      -38.3985370209  TIP3      4947            0.0000000000
     33558      5108  TIP3      OH2           -20.9634654900       12.4855733897      -31.8453372515  TIP3      4948            0.0000000000
     33559      5108  TIP3      H1            -21.8770197240       12.2788118949      -31.5883779512  TIP3      4948            0.0000000000
     33560      5108  TIP3      H2            -20.7411961022       11.7011432743      -32.4049237194  TIP3      4948            0.0000000000
     33561      5109  TIP3      OH2           -28.9069796280       16.8792094940      -35.9685826915  TIP3      4949            0.0000000000
     33562      5109  TIP3      H1            -28.4405170448       16.6841516129      -35.1229888974  TIP3      4949            0.0000000000
     33563      5109  TIP3      H2            -29.8380204356       16.8338116517      -35.6914204807  TIP3      4949            0.0000000000
     33564      5110  TIP3      OH2           -32.6826497735       12.0091130964      -40.6845702824  TIP3      4950            0.0000000000
     33565      5110  TIP3      H1            -32.7139644672       12.9224687731      -40.3550600119  TIP3      4950            0.0000000000
     33566      5110  TIP3      H2            -33.5956295300       11.7117951484      -40.4829972981  TIP3      4950            0.0000000000
     33567      5111  TIP3      OH2           -27.6923058486       14.3593897856      -36.4034371406  TIP3      4951            0.0000000000
     33568      5111  TIP3      H1            -28.2099418016       15.1508993596      -36.1408476666  TIP3      4951            0.0000000000
     33569      5111  TIP3      H2            -27.7093917705       13.8287798978      -35.5988481934  TIP3      4951            0.0000000000
     33570      5112  TIP3      OH2           -26.8928908257       19.1164097992      -29.2315141249  TIP3      4952            0.0000000000
     33571      5112  TIP3      H1            -26.3502788520       19.7394020142      -29.7337732278  TIP3      4952            0.0000000000
     33572      5112  TIP3      H2            -26.7746624860       18.2991498211      -29.7440912823  TIP3      4952            0.0000000000
     33573      5113  TIP3      OH2           -29.0566367036       19.9021364359      -37.1133161581  TIP3      4953            0.0000000000
     33574      5113  TIP3      H1            -29.7688044079       19.4218337966      -36.6351302646  TIP3      4953            0.0000000000
     33575      5113  TIP3      H2            -28.2829813444       19.4313944123      -36.7636144243  TIP3      4953            0.0000000000
     33576      5114  TIP3      OH2           -23.4429829691       14.5709393982      -29.9455426607  TIP3      4954            0.0000000000
     33577      5114  TIP3      H1            -23.5830321793       14.4963419117      -28.9732201217  TIP3      4954            0.0000000000
     33578      5114  TIP3      H2            -22.8397477509       13.8246531477      -30.0874794558  TIP3      4954            0.0000000000
     33579      5115  TIP3      OH2           -20.9428866702       14.5538131328      -41.4023401635  TIP3      4955            0.0000000000
     33580      5115  TIP3      H1            -21.4691411479       14.3495702551      -40.6132224809  TIP3      4955            0.0000000000
     33581      5115  TIP3      H2            -20.9770384554       15.5382014687      -41.3021252390  TIP3      4955            0.0000000000
     33582      5116  TIP3      OH2           -20.3905292873       18.9088153830      -27.7014139678  TIP3      4956            0.0000000000
     33583      5116  TIP3      H1            -21.3757618968       18.9403793273      -27.6317745770  TIP3      4956            0.0000000000
     33584      5116  TIP3      H2            -20.2448935586       19.6208994402      -28.3539206601  TIP3      4956            0.0000000000
     33585      5117  TIP3      OH2           -16.3248183672       19.9615968231      -41.1383718965  TIP3      4957            0.0000000000
     33586      5117  TIP3      H1            -15.9291107775       20.8222233631      -40.9191392139  TIP3      4957            0.0000000000
     33587      5117  TIP3      H2            -17.2696528025       20.2123869870      -41.0830269048  TIP3      4957            0.0000000000
     33588      5118  TIP3      OH2           -32.5020086488        6.4747370066      -28.3741483773  TIP3      4958            0.0000000000
     33589      5118  TIP3      H1            -33.1873572359        6.9366047319      -27.8461167077  TIP3      4958            0.0000000000
     33590      5118  TIP3      H2            -32.3309036495        5.7035451938      -27.7993039701  TIP3      4958            0.0000000000
     33591      5119  TIP3      OH2           -20.1452139203       13.7960757208      -38.5698426402  TIP3      4959            0.0000000000
     33592      5119  TIP3      H1            -19.3346625826       13.4145334374      -38.1870808749  TIP3      4959            0.0000000000
     33593      5119  TIP3      H2            -19.7823427197       14.6499814010      -38.8728922698  TIP3      4959            0.0000000000
     33594      5120  TIP3      OH2           -32.7493268814       18.0201068789      -29.9397070580  TIP3      4960            0.0000000000
     33595      5120  TIP3      H1            -32.0121589161       17.3822796364      -29.9413055166  TIP3      4960            0.0000000000
     33596      5120  TIP3      H2            -33.1643547348       17.8926890293      -29.0834724358  TIP3      4960            0.0000000000
     33597      5121  TIP3      OH2           -28.3148128937       16.3688676165      -39.8343727149  TIP3      4961            0.0000000000
     33598      5121  TIP3      H1            -27.8289415161       16.1709699327      -39.0132669011  TIP3      4961            0.0000000000
     33599      5121  TIP3      H2            -28.1727414909       17.3396977780      -39.8599623498  TIP3      4961            0.0000000000
     33600      5122  TIP3      OH2           -31.3836809888       13.9576259744      -39.1514211716  TIP3      4962            0.0000000000
     33601      5122  TIP3      H1            -32.0373079115       14.3843036735      -38.5459521519  TIP3      4962            0.0000000000
     33602      5122  TIP3      H2            -31.1865757634       14.6847826949      -39.7603493882  TIP3      4962            0.0000000000
     33603      5123  TIP3      OH2           -23.4442753138        5.7768173474      -29.2261785880  TIP3      4963            0.0000000000
     33604      5123  TIP3      H1            -22.9345736111        6.1158333748      -28.4715538607  TIP3      4963            0.0000000000
     33605      5123  TIP3      H2            -23.8432147964        4.9226043825      -28.8985877203  TIP3      4963            0.0000000000
     33606      5124  TIP3      OH2           -23.1828310398        5.7662095224      -37.5916913844  TIP3      4964            0.0000000000
     33607      5124  TIP3      H1            -22.9787264289        6.0889171268      -38.5035236180  TIP3      4964            0.0000000000
     33608      5124  TIP3      H2            -22.9018705861        6.5211720988      -37.0347886322  TIP3      4964            0.0000000000
     33609      5125  TIP3      OH2           -25.5875977588       17.5731215367      -39.1289797346  TIP3      4965            0.0000000000
     33610      5125  TIP3      H1            -26.2633164023       18.2627862415      -39.2488195340  TIP3      4965            0.0000000000
     33611      5125  TIP3      H2            -24.8264845299       17.9387783416      -39.6118802445  TIP3      4965            0.0000000000
     33612      5126  TIP3      OH2           -26.0695552631        7.6909710570      -37.4739465171  TIP3      4966            0.0000000000
     33613      5126  TIP3      H1            -25.2522385754        8.2445950668      -37.5519212904  TIP3      4966            0.0000000000
     33614      5126  TIP3      H2            -26.1268604418        7.5770804544      -36.5139726929  TIP3      4966            0.0000000000
     33615      5127  TIP3      OH2           -24.8137640407        7.9266547608      -27.4734497046  TIP3      4967            0.0000000000
     33616      5127  TIP3      H1            -24.8056598847        8.9056695182      -27.5675594915  TIP3      4967            0.0000000000
     33617      5127  TIP3      H2            -24.5335696399        7.6210549801      -28.3501192926  TIP3      4967            0.0000000000
     33618      5128  TIP3      OH2           -24.9540835472        4.3381985382      -36.0235526078  TIP3      4968            0.0000000000
     33619      5128  TIP3      H1            -25.7681440415        4.8454896453      -35.8365561388  TIP3      4968            0.0000000000
     33620      5128  TIP3      H2            -24.4391417581        4.9803549353      -36.5697970861  TIP3      4968            0.0000000000
     33621      5129  TIP3      OH2           -27.8661242963       19.0540852340      -39.4616386819  TIP3      4969            0.0000000000
     33622      5129  TIP3      H1            -27.7420554930       19.9033424509      -39.9163325861  TIP3      4969            0.0000000000
     33623      5129  TIP3      H2            -28.4758701598       19.3483127077      -38.7519326619  TIP3      4969            0.0000000000
     33624      5130  TIP3      OH2           -29.3974409353        5.6520363084      -39.4130569103  TIP3      4970            0.0000000000
     33625      5130  TIP3      H1            -29.3602243434        6.4693816915      -38.8772049445  TIP3      4970            0.0000000000
     33626      5130  TIP3      H2            -28.9529746919        5.0358156180      -38.8033324785  TIP3      4970            0.0000000000
     33627      5131  TIP3      OH2           -19.0616029708        6.4992379412      -27.0617044793  TIP3      4971            0.0000000000
     33628      5131  TIP3      H1            -20.0227546226        6.5310491785      -27.2905396111  TIP3      4971            0.0000000000
     33629      5131  TIP3      H2            -18.6977087639        6.5147851483      -27.9683484644  TIP3      4971            0.0000000000
     33630      5132  TIP3      OH2           -20.2874472567       10.3338584685      -33.2860837954  TIP3      4972            0.0000000000
     33631      5132  TIP3      H1            -21.1706890457        9.9147357731      -33.3698467364  TIP3      4972            0.0000000000
     33632      5132  TIP3      H2            -19.7571731599        9.5510703403      -33.0701869841  TIP3      4972            0.0000000000
     33633      5133  TIP3      OH2           -31.1133189309       16.4250343513      -41.2125715705  TIP3      4973            0.0000000000
     33634      5133  TIP3      H1            -30.3998349768       16.5915419830      -40.5720840814  TIP3      4973            0.0000000000
     33635      5133  TIP3      H2            -30.7765861942       15.5850249642      -41.5902721328  TIP3      4973            0.0000000000
     33636      5134  TIP3      OH2           -33.1746874291        9.2611046342      -41.8325507203  TIP3      4974            0.0000000000
     33637      5134  TIP3      H1            -32.9308070835        9.8547340776      -42.5662248514  TIP3      4974            0.0000000000
     33638      5134  TIP3      H2            -33.1795491538        8.3772474462      -42.2514754837  TIP3      4974            0.0000000000
     33639      5135  TIP3      OH2           -19.3181554504       19.3363632412      -31.8493366301  TIP3      4975            0.0000000000
     33640      5135  TIP3      H1            -19.6414390119       20.0406117934      -32.4390058672  TIP3      4975            0.0000000000
     33641      5135  TIP3      H2            -19.1742463317       19.8457590133      -31.0341175193  TIP3      4975            0.0000000000
     33642      5136  TIP3      OH2           -32.0384953540        3.4013015345      -33.1335510240  TIP3      4976            0.0000000000
     33643      5136  TIP3      H1            -31.8105789459        3.2505065961      -34.0820775263  TIP3      4976            0.0000000000
     33644      5136  TIP3      H2            -31.9575190486        2.4944855655      -32.7798614694  TIP3      4976            0.0000000000
     33645      5137  TIP3      OH2           -33.2381410178       17.1528024124      -37.6541578822  TIP3      4977            0.0000000000
     33646      5137  TIP3      H1            -33.8889417188       17.4221065453      -36.9916449661  TIP3      4977            0.0000000000
     33647      5137  TIP3      H2            -33.2483878871       17.9429362285      -38.2353410698  TIP3      4977            0.0000000000
     33648      5138  TIP3      OH2           -33.6850908364       19.9255776530      -25.4301021734  TIP3      4978            0.0000000000
     33649      5138  TIP3      H1            -33.4562860867       19.1537148092      -24.8835322131  TIP3      4978            0.0000000000
     33650      5138  TIP3      H2            -34.5576159711       19.6645891139      -25.7731784187  TIP3      4978            0.0000000000
     33651      5139  TIP3      OH2           -29.2744533988       19.0880437685      -23.8238638975  TIP3      4979            0.0000000000
     33652      5139  TIP3      H1            -28.4397237703       18.9002809458      -23.3785114742  TIP3      4979            0.0000000000
     33653      5139  TIP3      H2            -29.2064948910       18.6443845771      -24.7000515154  TIP3      4979            0.0000000000
     33654      5140  TIP3      OH2           -24.2161316883       18.6506938626      -41.4883239123  TIP3      4980            0.0000000000
     33655      5140  TIP3      H1            -24.6214314195       18.0972028520      -42.1810182221  TIP3      4980            0.0000000000
     33656      5140  TIP3      H2            -23.2746232565       18.5893611372      -41.7485089205  TIP3      4980            0.0000000000
     33657      5141  TIP3      OH2           -23.0201133962       17.9621648596      -25.0171826165  TIP3      4981            0.0000000000
     33658      5141  TIP3      H1            -23.2026559400       17.0099964507      -25.0864364642  TIP3      4981            0.0000000000
     33659      5141  TIP3      H2            -22.1469424535       17.9857618300      -24.5800981479  TIP3      4981            0.0000000000
     33660      5142  TIP3      OH2           -20.1794846620       17.7048312591       42.0938390686  TIP3      4982            0.0000000000
     33661      5142  TIP3      H1            -20.6269079588       17.8059317657       42.9666789704  TIP3      4982            0.0000000000
     33662      5142  TIP3      H2            -19.6535153386       18.5376699574       42.0932828420  TIP3      4982            0.0000000000
     33663      5143  TIP3      OH2           -34.1568834449       13.9851873097      -24.4867651460  TIP3      4983            0.0000000000
     33664      5143  TIP3      H1            -34.2710715951       13.2613656149      -25.1285265393  TIP3      4983            0.0000000000
     33665      5143  TIP3      H2            -34.6573717941       14.7071477627      -24.8884888133  TIP3      4983            0.0000000000
     33666      5144  TIP3      OH2           -29.6879079810       14.2688903732      -42.0591350583  TIP3      4984            0.0000000000
     33667      5144  TIP3      H1            -29.1163592145       13.9835291616      -41.3129425167  TIP3      4984            0.0000000000
     33668      5144  TIP3      H2            -29.1434223693       14.0278398312      -42.8257266483  TIP3      4984            0.0000000000
     33669      5145  TIP3      OH2           -27.2934984258       13.9757978733      -25.4088430721  TIP3      4985            0.0000000000
     33670      5145  TIP3      H1            -27.4434182056       14.4554125278      -26.2515827664  TIP3      4985            0.0000000000
     33671      5145  TIP3      H2            -27.4216304148       13.0182214559      -25.6177885995  TIP3      4985            0.0000000000
     33672      5146  TIP3      OH2           -21.5171740256       13.5752200655      -27.2511351842  TIP3      4986            0.0000000000
     33673      5146  TIP3      H1            -20.6239735705       13.9329305936      -27.1515928158  TIP3      4986            0.0000000000
     33674      5146  TIP3      H2            -22.0250932718       14.4188557951      -27.2094417378  TIP3      4986            0.0000000000
     33675      5147  TIP3      OH2           -33.6056113820       11.3492747258      -25.1984411035  TIP3      4987            0.0000000000
     33676      5147  TIP3      H1            -32.9229758299       10.6582618664      -25.2455722108  TIP3      4987            0.0000000000
     33677      5147  TIP3      H2            -33.4338267984       11.7501936524      -24.3185379228  TIP3      4987            0.0000000000
     33678      5148  TIP3      OH2           -28.4471895336       12.5532152426      -40.1569701663  TIP3      4988            0.0000000000
     33679      5148  TIP3      H1            -28.9865405831       11.9884535049      -39.5761746897  TIP3      4988            0.0000000000
     33680      5148  TIP3      H2            -27.8401453787       11.9246177987      -40.5857749693  TIP3      4988            0.0000000000
     33681      5149  TIP3      OH2           -28.5350833218       11.0383970774      -27.9482652137  TIP3      4989            0.0000000000
     33682      5149  TIP3      H1            -29.4371686026       11.3937012813      -27.8073136362  TIP3      4989            0.0000000000
     33683      5149  TIP3      H2            -28.6404840311       10.5539672968      -28.7945737694  TIP3      4989            0.0000000000
     33684      5150  TIP3      OH2           -26.9658313366       10.6345150778      -42.1795421425  TIP3      4990            0.0000000000
     33685      5150  TIP3      H1            -26.5405911053       10.6996557929      -43.0492012910  TIP3      4990            0.0000000000
     33686      5150  TIP3      H2            -26.1486300908       10.5410686537      -41.6195554088  TIP3      4990            0.0000000000
     33687      5151  TIP3      OH2           -23.7625745324       12.8421379368      -24.1969053000  TIP3      4991            0.0000000000
     33688      5151  TIP3      H1            -23.4529243635       12.2746092039      -24.9170740719  TIP3      4991            0.0000000000
     33689      5151  TIP3      H2            -23.9171345906       12.1898908223      -23.4751999595  TIP3      4991            0.0000000000
     33690      5152  TIP3      OH2           -17.3792806393       13.6752281439       42.5843409903  TIP3      4992            0.0000000000
     33691      5152  TIP3      H1            -18.2499344402       13.3964748545       42.2567368448  TIP3      4992            0.0000000000
     33692      5152  TIP3      H2            -17.5751796619       14.5489080255       42.9727115806  TIP3      4992            0.0000000000
     33693      5153  TIP3      OH2           -28.4210041486        8.2112041705      -26.8339204620  TIP3      4993            0.0000000000
     33694      5153  TIP3      H1            -28.2890159134        7.3395271266      -27.2552118049  TIP3      4993            0.0000000000
     33695      5153  TIP3      H2            -28.2431262067        8.7949962725      -27.5892141106  TIP3      4993            0.0000000000
     33696      5154  TIP3      OH2           -27.8993068001        5.8506415134      -28.6754638660  TIP3      4994            0.0000000000
     33697      5154  TIP3      H1            -27.4044786643        6.4644862088      -29.2717429345  TIP3      4994            0.0000000000
     33698      5154  TIP3      H2            -28.7700002549        5.7854627912      -29.1276092743  TIP3      4994            0.0000000000
     33699      5155  TIP3      OH2           -26.3471230825       11.2297158854      -30.3357596114  TIP3      4995            0.0000000000
     33700      5155  TIP3      H1            -25.9531165220       11.2224876568      -29.4317135342  TIP3      4995            0.0000000000
     33701      5155  TIP3      H2            -26.9071858163       12.0241853241      -30.2395097390  TIP3      4995            0.0000000000
     33702      5156  TIP3      OH2           -22.0428199425        8.2237427160      -23.6196184599  TIP3      4996            0.0000000000
     33703      5156  TIP3      H1            -21.9923398646        7.8460492588      -24.4976251172  TIP3      4996            0.0000000000
     33704      5156  TIP3      H2            -21.7053840302        9.1177534186      -23.7450335732  TIP3      4996            0.0000000000
     33705      5157  TIP3      OH2           -21.1303343923       11.9038820090      -25.1130837859  TIP3      4997            0.0000000000
     33706      5157  TIP3      H1            -21.2835760004       12.3881140610      -25.9515306256  TIP3      4997            0.0000000000
     33707      5157  TIP3      H2            -20.1649071878       11.8065618354      -25.1336010238  TIP3      4997            0.0000000000
     33708      5158  TIP3      OH2           -30.1915770761        8.8586049579      -24.8412555558  TIP3      4998            0.0000000000
     33709      5158  TIP3      H1            -30.6695628037        8.0189851844      -24.9380336278  TIP3      4998            0.0000000000
     33710      5158  TIP3      H2            -29.5088247800        8.7771084980      -25.5380983452  TIP3      4998            0.0000000000
     33711      5159  TIP3      OH2           -27.4116112269        3.2962699782      -29.2806831399  TIP3      4999            0.0000000000
     33712      5159  TIP3      H1            -27.6995572339        4.1910347562      -28.9754112314  TIP3      4999            0.0000000000
     33713      5159  TIP3      H2            -28.2473404810        2.8485048331      -29.4560564309  TIP3      4999            0.0000000000
     33714      5160  TIP3      OH2           -26.4204398139        7.1907354830      -24.8433397272  TIP3      5000            0.0000000000
     33715      5160  TIP3      H1            -27.0709717382        7.1316738936      -24.1198266419  TIP3      5000            0.0000000000
     33716      5160  TIP3      H2            -27.0145376101        7.2404285239      -25.6155717296  TIP3      5000            0.0000000000
     33717      5161  TIP3      OH2           -23.4622159381        6.2136973269      -25.5805695518  TIP3      5001            0.0000000000
     33718      5161  TIP3      H1            -24.1833854504        6.7274234495      -26.0041709626  TIP3      5001            0.0000000000
     33719      5161  TIP3      H2            -23.9160952529        5.8577874835      -24.7987118516  TIP3      5001            0.0000000000
     33720      5162  TIP3      OH2           -32.1719068006        6.8179616792      -24.7392012765  TIP3      5002            0.0000000000
     33721      5162  TIP3      H1            -31.4362922710        6.1861793396      -24.9278041909  TIP3      5002            0.0000000000
     33722      5162  TIP3      H2            -32.3271206108        6.7055676304      -23.7923154893  TIP3      5002            0.0000000000
     33723      5163  TIP3      OH2           -27.7136506960        2.3906994279      -26.0518291386  TIP3      5003            0.0000000000
     33724      5163  TIP3      H1            -27.1129310992        1.6925256174      -26.3815324498  TIP3      5003            0.0000000000
     33725      5163  TIP3      H2            -27.3476018101        3.2005939940      -26.4326879317  TIP3      5003            0.0000000000
     33726      5164  TIP3      OH2           -27.2592352874        4.0204929735      -23.1551885954  TIP3      5004            0.0000000000
     33727      5164  TIP3      H1            -27.1363191377        3.1096449312      -23.4523174312  TIP3      5004            0.0000000000
     33728      5164  TIP3      H2            -27.3634428977        4.4786308865      -24.0103869116  TIP3      5004            0.0000000000
     33729      5165  TIP3      OH2           -27.7666924320       21.4787675846      -40.8004256787  TIP3      5005            0.0000000000
     33730      5165  TIP3      H1            -26.8638424919       21.5783708730      -41.1554550733  TIP3      5005            0.0000000000
     33731      5165  TIP3      H2            -28.2216523487       21.1372211200      -41.5902811563  TIP3      5005            0.0000000000
     33732      5166  TIP3      OH2           -33.7855143564       15.3473477329      -41.5339173606  TIP3      5006            0.0000000000
     33733      5166  TIP3      H1            -32.9839881847       15.9014452398      -41.5934700213  TIP3      5006            0.0000000000
     33734      5166  TIP3      H2            -34.3270808774       15.6188685673      -42.3061311082  TIP3      5006            0.0000000000
     33735      5167  TIP3      OH2           -34.8603235929       21.0454520074      -36.4540360849  TIP3      5007            0.0000000000
     33736      5167  TIP3      H1            -35.4034365258       21.3606510473      -37.2170259815  TIP3      5007            0.0000000000
     33737      5167  TIP3      H2            -35.3956636261       21.1940372961      -35.6588819261  TIP3      5007            0.0000000000
     33738      5168  TIP3      OH2           -33.8515249910       19.1795934745      -34.1584248845  TIP3      5008            0.0000000000
     33739      5168  TIP3      H1            -33.5151927111       18.2393492624      -34.1882256186  TIP3      5008            0.0000000000
     33740      5168  TIP3      H2            -33.9788053456       19.3378280474      -33.2042650458  TIP3      5008            0.0000000000
     33741      5169  TIP3      OH2           -16.1262112869       20.4738386577      -31.6209742821  TIP3      5009            0.0000000000
     33742      5169  TIP3      H1            -16.4669417902       20.7365072209      -30.7474989644  TIP3      5009            0.0000000000
     33743      5169  TIP3      H2            -15.1522799675       20.4655138846      -31.4771080319  TIP3      5009            0.0000000000
     33744      5170  TIP3      OH2           -17.1273082957       19.4427118268      -28.5394799532  TIP3      5010            0.0000000000
     33745      5170  TIP3      H1            -17.7387580562       18.6800591492      -28.5559502482  TIP3      5010            0.0000000000
     33746      5170  TIP3      H2            -16.6757982964       19.3335799656      -27.6814600385  TIP3      5010            0.0000000000
     33747      5171  TIP3      OH2           -18.2833460433       15.1885111864      -23.4899550375  TIP3      5011            0.0000000000
     33748      5171  TIP3      H1            -19.2318018013       15.1121991306      -23.2676632598  TIP3      5011            0.0000000000
     33749      5171  TIP3      H2            -18.1360107036       16.1020311514      -23.1607566467  TIP3      5011            0.0000000000
     33750      5172  TIP3      OH2           -17.4214158056       13.0424908953      -38.5376396054  TIP3      5012            0.0000000000
     33751      5172  TIP3      H1            -16.6948083084       13.6724411031      -38.3139962584  TIP3      5012            0.0000000000
     33752      5172  TIP3      H2            -17.5930191053       12.6189120078      -37.6668241950  TIP3      5012            0.0000000000
     33753      5173  TIP3      OH2           -17.2783048442       11.6548493865      -36.2928608298  TIP3      5013            0.0000000000
     33754      5173  TIP3      H1            -18.0393757215       11.0854655526      -36.0353947757  TIP3      5013            0.0000000000
     33755      5173  TIP3      H2            -16.8056052429       11.7054769273      -35.4327954204  TIP3      5013            0.0000000000
     33756      5174  TIP3      OH2           -17.8192050608       14.4473016487      -31.7898572265  TIP3      5014            0.0000000000
     33757      5174  TIP3      H1            -16.9436647823       14.1228013233      -32.0664324569  TIP3      5014            0.0000000000
     33758      5174  TIP3      H2            -18.0362462265       15.0946162910      -32.4738226329  TIP3      5014            0.0000000000
     33759      5175  TIP3      OH2           -18.9231628565       17.3439313355      -29.3900940623  TIP3      5015            0.0000000000
     33760      5175  TIP3      H1            -19.6294981524       17.5687161362      -28.7421695268  TIP3      5015            0.0000000000
     33761      5175  TIP3      H2            -19.4855444247       17.1642498885      -30.1778747136  TIP3      5015            0.0000000000
     33762      5176  TIP3      OH2           -16.3604953267       11.1521527504      -40.0964815824  TIP3      5016            0.0000000000
     33763      5176  TIP3      H1            -17.1057809764       11.2466983442      -40.7088771222  TIP3      5016            0.0000000000
     33764      5176  TIP3      H2            -16.5765913616       11.9016849676      -39.4878683540  TIP3      5016            0.0000000000
     33765      5177  TIP3      OH2           -18.6255835106        8.6421544633      -41.2397715240  TIP3      5017            0.0000000000
     33766      5177  TIP3      H1            -17.9927023660        9.0038316856      -41.8926440297  TIP3      5017            0.0000000000
     33767      5177  TIP3      H2            -18.8381436232        7.7790588588      -41.6687919708  TIP3      5017            0.0000000000
     33768      5178  TIP3      OH2           -19.1180265026        9.8709778689      -35.5734624580  TIP3      5018            0.0000000000
     33769      5178  TIP3      H1            -19.4852029276        9.1243948086      -36.0863872671  TIP3      5018            0.0000000000
     33770      5178  TIP3      H2            -19.7787375248        9.9834638411      -34.8574505888  TIP3      5018            0.0000000000
     33771      5179  TIP3      OH2           -34.0873061510       11.5232967359      -32.0096817405  TIP3      5019            0.0000000000
     33772      5179  TIP3      H1            -34.2939685548       12.3083845569      -32.5295598985  TIP3      5019            0.0000000000
     33773      5179  TIP3      H2            -33.1859806304       11.7658367227      -31.6863942670  TIP3      5019            0.0000000000
     33774      5180  TIP3      OH2           -18.2494330873       11.8556713380      -26.3850788278  TIP3      5020            0.0000000000
     33775      5180  TIP3      H1            -17.8010218856       11.0128858880      -26.1452704145  TIP3      5020            0.0000000000
     33776      5180  TIP3      H2            -17.4644520009       12.3707529960      -26.6473151945  TIP3      5020            0.0000000000
     33777      5181  TIP3      OH2           -17.1136716240        9.5702991218      -25.6369758449  TIP3      5021            0.0000000000
     33778      5181  TIP3      H1            -18.0341425675        9.2557153021      -25.5352476615  TIP3      5021            0.0000000000
     33779      5181  TIP3      H2            -16.6181156168        8.7191219468      -25.6098617960  TIP3      5021            0.0000000000
     33780      5182  TIP3      OH2           -19.1114206194        6.2282076410      -42.3972289988  TIP3      5022            0.0000000000
     33781      5182  TIP3      H1            -18.6823393881        5.5847052664      -41.8088549515  TIP3      5022            0.0000000000
     33782      5182  TIP3      H2            -20.0295887619        6.2716516278      -42.0729516115  TIP3      5022            0.0000000000
     33783      5183  TIP3      OH2           -19.8993804238        7.9797898041      -37.4664177316  TIP3      5023            0.0000000000
     33784      5183  TIP3      H1            -19.5945872165        7.0699347260      -37.3370819019  TIP3      5023            0.0000000000
     33785      5183  TIP3      H2            -19.2341104874        8.2785697484      -38.1075449691  TIP3      5023            0.0000000000
     33786      5184  TIP3      OH2           -18.9706981793        7.7882107297      -32.6880303128  TIP3      5024            0.0000000000
     33787      5184  TIP3      H1            -18.2188574386        7.3672659065      -33.1472861852  TIP3      5024            0.0000000000
     33788      5184  TIP3      H2            -19.3351895356        7.0278319817      -32.1983888575  TIP3      5024            0.0000000000
     33789      5185  TIP3      OH2           -18.9489551885        9.2646275992      -28.2946544893  TIP3      5025            0.0000000000
     33790      5185  TIP3      H1            -19.8739674615        9.2698272929      -27.9770669364  TIP3      5025            0.0000000000
     33791      5185  TIP3      H2            -18.6153668906       10.0897123132      -27.9037262432  TIP3      5025            0.0000000000
     33792      5186  TIP3      OH2           -34.4655591802        7.3920719442      -25.9352581187  TIP3      5026            0.0000000000
     33793      5186  TIP3      H1            -33.5448116982        7.3859361708      -25.5887921732  TIP3      5026            0.0000000000
     33794      5186  TIP3      H2            -34.7892361407        6.5548762319      -25.5231111435  TIP3      5026            0.0000000000
     33795      5187  TIP3      OH2           -16.6562843385        3.0861717982      -24.1817197572  TIP3      5027            0.0000000000
     33796      5187  TIP3      H1            -16.0260474528        2.5153389741      -24.6690635903  TIP3      5027            0.0000000000
     33797      5187  TIP3      H2            -16.6232383904        3.9461144050      -24.6572760744  TIP3      5027            0.0000000000
     33798      5188  TIP3      OH2           -18.6721915192        5.1410278417      -37.4379974611  TIP3      5028            0.0000000000
     33799      5188  TIP3      H1            -18.6475003522        4.7543232097      -36.5316667673  TIP3      5028            0.0000000000
     33800      5188  TIP3      H2            -19.4120070790        4.6567029688      -37.8571834734  TIP3      5028            0.0000000000
     33801      5189  TIP3      OH2           -32.9709798862        5.5685992931      -31.8639170380  TIP3      5029            0.0000000000
     33802      5189  TIP3      H1            -32.3795486073        5.1683769256      -32.5366704138  TIP3      5029            0.0000000000
     33803      5189  TIP3      H2            -32.5842678371        6.4584522956      -31.7320613649  TIP3      5029            0.0000000000
     33804      5190  TIP3      OH2           -34.7456676334        9.0673629302      -31.4263825011  TIP3      5030            0.0000000000
     33805      5190  TIP3      H1            -34.4038860165        8.8446502911      -32.3232370846  TIP3      5030            0.0000000000
     33806      5190  TIP3      H2            -34.5503721729       10.0335782870      -31.4592024807  TIP3      5030            0.0000000000
     33807      5191  TIP3      OH2           -17.2296170508        5.2547102749      -25.5684666370  TIP3      5031            0.0000000000
     33808      5191  TIP3      H1            -18.0626384305        5.7011811191      -25.8414425945  TIP3      5031            0.0000000000
     33809      5191  TIP3      H2            -17.3128952493        4.4843688723      -26.1754216536  TIP3      5031            0.0000000000
     33810      5192  TIP3      OH2           -16.9699862220        5.1528840902      -40.6077464697  TIP3      5032            0.0000000000
     33811      5192  TIP3      H1            -16.5860307435        4.6582239721      -41.3465584046  TIP3      5032            0.0000000000
     33812      5192  TIP3      H2            -16.2224408559        5.7420369415      -40.3544826098  TIP3      5032            0.0000000000
     33813      5193  TIP3      OH2           -35.0712399251        4.5019936656      -37.6474652473  TIP3      5033            0.0000000000
     33814      5193  TIP3      H1            -35.7818666488        4.5839567476      -38.2945136142  TIP3      5033            0.0000000000
     33815      5193  TIP3      H2            -34.4303894626        3.9207326264      -38.1121034126  TIP3      5033            0.0000000000
     33816      5194  TIP3      OH2           -19.6510604619       20.0496572564      -35.2546262296  TIP3      5034            0.0000000000
     33817      5194  TIP3      H1            -19.2234004383       19.6658336717      -36.0420947137  TIP3      5034            0.0000000000
     33818      5194  TIP3      H2            -19.6063867202       20.9776059498      -35.5198729787  TIP3      5034            0.0000000000
     33819      5195  TIP3      OH2            35.2701551794        3.5811512124      -29.0192566562  TIP3      5035            0.0000000000
     33820      5195  TIP3      H1             34.8951442606        3.0856805635      -28.2657907001  TIP3      5035            0.0000000000
     33821      5195  TIP3      H2             34.5907287682        4.2540886310      -29.1740275448  TIP3      5035            0.0000000000
     33822      5196  TIP3      OH2           -32.5952104644       17.2582950213      -25.1941727656  TIP3      5036            0.0000000000
     33823      5196  TIP3      H1            -32.8317129505       16.7744982116      -26.0255397899  TIP3      5036            0.0000000000
     33824      5196  TIP3      H2            -32.1913212456       16.5728756104      -24.6490075947  TIP3      5036            0.0000000000
     33825      5197  TIP3      OH2           -29.7027786243       18.6720857521      -28.6974313095  TIP3      5037            0.0000000000
     33826      5197  TIP3      H1            -29.6061607204       19.5603091646      -29.0935987511  TIP3      5037            0.0000000000
     33827      5197  TIP3      H2            -28.9413625605       18.2181393596      -29.1221348826  TIP3      5037            0.0000000000
     33828      5198  TIP3      OH2           -25.7736880534       19.7414918199      -26.0644155692  TIP3      5038            0.0000000000
     33829      5198  TIP3      H1            -25.0929640560       19.3796252862      -25.4857817478  TIP3      5038            0.0000000000
     33830      5198  TIP3      H2            -25.3813528819       19.5419751563      -26.9358734457  TIP3      5038            0.0000000000
     33831      5199  TIP3      OH2           -23.4804550937       21.9348935706      -26.5447082091  TIP3      5039            0.0000000000
     33832      5199  TIP3      H1            -23.4623207025       21.0979704766      -27.0576251373  TIP3      5039            0.0000000000
     33833      5199  TIP3      H2            -23.1945933452       21.5990137299      -25.6868630132  TIP3      5039            0.0000000000
     33834      5200  TIP3      OH2           -18.0419725489        3.3227098887      -27.1317190591  TIP3      5040            0.0000000000
     33835      5200  TIP3      H1            -18.5675893272        3.8196155295      -27.7833932974  TIP3      5040            0.0000000000
     33836      5200  TIP3      H2            -17.8557558902        2.5981412627      -27.7600511898  TIP3      5040            0.0000000000
     33837      5201  TIP3      OH2           -32.4612085927       21.4577978989      -28.8579373996  TIP3      5041            0.0000000000
     33838      5201  TIP3      H1            -33.2327310903       21.6596619913      -29.4386885692  TIP3      5041            0.0000000000
     33839      5201  TIP3      H2            -32.8732755838       20.9083801699      -28.1661642468  TIP3      5041            0.0000000000
     33840      5202  TIP3      OH2           -29.9109701363       21.0922043363      -30.1198687877  TIP3      5042            0.0000000000
     33841      5202  TIP3      H1            -30.8690804687       21.2060805939      -29.9407083183  TIP3      5042            0.0000000000
     33842      5202  TIP3      H2            -29.8111834921       21.5514360927      -30.9724517276  TIP3      5042            0.0000000000
     33843      5203  TIP3      OH2           -25.1468529459       20.9789071436      -30.9424887484  TIP3      5043            0.0000000000
     33844      5203  TIP3      H1            -26.0771364906       21.2162422259      -31.0727983299  TIP3      5043            0.0000000000
     33845      5203  TIP3      H2            -24.9753807039       21.3955138001      -30.0691151814  TIP3      5043            0.0000000000
     33846      5204  TIP3      OH2           -22.0076051461       20.3431549401      -30.7310830773  TIP3      5044            0.0000000000
     33847      5204  TIP3      H1            -22.7205651910       20.6201893818      -31.3210127628  TIP3      5044            0.0000000000
     33848      5204  TIP3      H2            -22.5111948194       19.9394361700      -29.9891931025  TIP3      5044            0.0000000000
     33849      5205  TIP3      OH2           -19.6919838856       21.0451618722      -29.7556071199  TIP3      5045            0.0000000000
     33850      5205  TIP3      H1            -20.0219398359       21.9579159710      -29.7778686404  TIP3      5045            0.0000000000
     33851      5205  TIP3      H2            -20.5055161207       20.6486409476      -30.1637968979  TIP3      5045            0.0000000000
     33852      5206  TIP3      OH2           -32.6630674568       19.8541499418      -31.7479870446  TIP3      5046            0.0000000000
     33853      5206  TIP3      H1            -32.7227843837       19.2470454398      -30.9677445918  TIP3      5046            0.0000000000
     33854      5206  TIP3      H2            -32.1947255250       19.3113127717      -32.3937868956  TIP3      5046            0.0000000000
     33855      5207  TIP3      OH2           -30.2126316966       19.1907027220      -33.6136065929  TIP3      5047            0.0000000000
     33856      5207  TIP3      H1            -30.7042696462       18.3383301379      -33.5447717783  TIP3      5047            0.0000000000
     33857      5207  TIP3      H2            -29.6211186130       19.1845985086      -32.8386340562  TIP3      5047            0.0000000000
     33858      5208  TIP3      OH2           -27.7672679452       19.3830943377      -32.1008866440  TIP3      5048            0.0000000000
     33859      5208  TIP3      H1            -27.7071635224       18.7280893445      -32.8098819798  TIP3      5048            0.0000000000
     33860      5208  TIP3      H2            -28.0464020737       18.7959541121      -31.3662942026  TIP3      5048            0.0000000000
     33861      5209  TIP3      OH2           -24.0259591820        4.7416659563      -33.2622291875  TIP3      5049            0.0000000000
     33862      5209  TIP3      H1            -24.6152800441        4.0317226935      -32.9896177414  TIP3      5049            0.0000000000
     33863      5209  TIP3      H2            -24.4621355471        4.9845287590      -34.0994126746  TIP3      5049            0.0000000000
     33864      5210  TIP3      OH2           -19.2245566768        2.7134804531      -33.2050779147  TIP3      5050            0.0000000000
     33865      5210  TIP3      H1            -18.7127015446        3.3215643915      -33.7790313308  TIP3      5050            0.0000000000
     33866      5210  TIP3      H2            -20.1545125517        2.8519851693      -33.5159513768  TIP3      5050            0.0000000000
     33867      5211  TIP3      OH2           -17.7206413918        4.0513664429      -35.1834533718  TIP3      5051            0.0000000000
     33868      5211  TIP3      H1            -16.9936359920        3.5181339776      -35.5620974222  TIP3      5051            0.0000000000
     33869      5211  TIP3      H2            -17.2475231940        4.8930452684      -34.9975235673  TIP3      5051            0.0000000000
     33870      5212  TIP3      OH2           -31.8003275198        2.9381571367      -35.7321404343  TIP3      5052            0.0000000000
     33871      5212  TIP3      H1            -32.6499001533        2.7956799754      -36.2129881811  TIP3      5052            0.0000000000
     33872      5212  TIP3      H2            -31.4973814995        1.9923977343      -35.7256481876  TIP3      5052            0.0000000000
     33873      5213  TIP3      OH2           -33.3039656190        3.6783932991      -39.5826195391  TIP3      5053            0.0000000000
     33874      5213  TIP3      H1            -33.0381289392        3.8972204900      -40.4922484955  TIP3      5053            0.0000000000
     33875      5213  TIP3      H2            -33.3309362933        2.7141372618      -39.6418545182  TIP3      5053            0.0000000000
     33876      5214  TIP3      OH2           -27.4528749422        2.2735240569      -35.2983076965  TIP3      5054            0.0000000000
     33877      5214  TIP3      H1            -27.7359382130        3.1570374683      -35.6391755053  TIP3      5054            0.0000000000
     33878      5214  TIP3      H2            -27.3087582181        2.4821338183      -34.3484112167  TIP3      5054            0.0000000000
     33879      5215  TIP3      OH2           -21.6247349498        3.1187912887      -34.4300846130  TIP3      5055            0.0000000000
     33880      5215  TIP3      H1            -22.1445153550        3.5722782110      -35.1115389762  TIP3      5055            0.0000000000
     33881      5215  TIP3      H2            -22.2427093692        2.4134172311      -34.1557019070  TIP3      5055            0.0000000000
     33882      5216  TIP3      OH2           -20.6205203775        3.3122910279      -38.7490883564  TIP3      5056            0.0000000000
     33883      5216  TIP3      H1            -21.3179644017        3.3858730670      -39.4229770540  TIP3      5056            0.0000000000
     33884      5216  TIP3      H2            -21.0373446054        2.6239238120      -38.1790637859  TIP3      5056            0.0000000000
     33885      5217  TIP3      OH2           -33.5345199999       19.5412957593      -38.5996623110  TIP3      5057            0.0000000000
     33886      5217  TIP3      H1            -34.4506288059       19.5870568388      -38.2347890261  TIP3      5057            0.0000000000
     33887      5217  TIP3      H2            -33.4072330794       20.4539385987      -38.9122703185  TIP3      5057            0.0000000000
     33888      5218  TIP3      OH2           -31.7269110752        5.8137053475      -41.1943843713  TIP3      5058            0.0000000000
     33889      5218  TIP3      H1            -31.9182178684        5.0773451591      -41.8076076162  TIP3      5058            0.0000000000
     33890      5218  TIP3      H2            -30.9827546183        5.4898025789      -40.6493991803  TIP3      5058            0.0000000000
     33891      5219  TIP3      OH2           -26.5162243917        4.4128363977      -38.6239686040  TIP3      5059            0.0000000000
     33892      5219  TIP3      H1            -26.9358323401        4.6882449906      -37.7825573702  TIP3      5059            0.0000000000
     33893      5219  TIP3      H2            -26.2687513315        5.2845302880      -39.0204569768  TIP3      5059            0.0000000000
     33894      5220  TIP3      OH2           -24.8451170560       21.1271707786      -40.9743972422  TIP3      5060            0.0000000000
     33895      5220  TIP3      H1            -23.8952460924       21.1947344978      -41.2142628931  TIP3      5060            0.0000000000
     33896      5220  TIP3      H2            -24.8354928199       20.1401384099      -40.9264457470  TIP3      5060            0.0000000000
     33897      5221  TIP3      OH2           -18.4714125756       20.2135874230      -37.6762760547  TIP3      5061            0.0000000000
     33898      5221  TIP3      H1            -17.7659814205       19.5430597643      -37.8482880156  TIP3      5061            0.0000000000
     33899      5221  TIP3      H2            -18.4627988568       20.6923254447      -38.5298708953  TIP3      5061            0.0000000000
     33900      5222  TIP3      OH2           -32.4374472195        3.7753788845      -26.1829055364  TIP3      5062            0.0000000000
     33901      5222  TIP3      H1            -32.9149187501        3.1210244195      -25.6477048279  TIP3      5062            0.0000000000
     33902      5222  TIP3      H2            -31.5806500393        3.8488001646      -25.7363786837  TIP3      5062            0.0000000000
     33903      5223  TIP3      OH2           -30.3525652753        2.8997107309      -24.0627944598  TIP3      5063            0.0000000000
     33904      5223  TIP3      H1            -29.9756877989        3.7650849029      -24.3558797729  TIP3      5063            0.0000000000
     33905      5223  TIP3      H2            -29.8172641781        2.3071090724      -24.6074813785  TIP3      5063            0.0000000000
     33906      5224  TIP3      OH2           -30.8861988084       20.6059685637      -41.9353462351  TIP3      5064            0.0000000000
     33907      5224  TIP3      H1            -31.7271166109       20.7898388171      -41.4829466560  TIP3      5064            0.0000000000
     33908      5224  TIP3      H2            -30.9624309292       19.6501138575      -41.9994064387  TIP3      5064            0.0000000000
     33909      5225  TIP3      OH2           -22.1588704800        2.5330835320      -24.4463081657  TIP3      5065            0.0000000000
     33910      5225  TIP3      H1            -22.2664578395        1.9368156299      -23.6726682806  TIP3      5065            0.0000000000
     33911      5225  TIP3      H2            -21.1950192195        2.5116635039      -24.5693777670  TIP3      5065            0.0000000000
     33912      5226  TIP3      OH2           -18.5875554755       18.4621314456      -25.8686084406  TIP3      5066            0.0000000000
     33913      5226  TIP3      H1            -19.3768991050       18.5487787136      -26.4571867111  TIP3      5066            0.0000000000
     33914      5226  TIP3      H2            -18.5359210820       19.3528491511      -25.5008138843  TIP3      5066            0.0000000000
     33915      5227  TIP3      OH2            -4.0580907288       12.6473361243      -35.5483563519  TIP3      5067            0.0000000000
     33916      5227  TIP3      H1             -4.3722971997       13.4365996180      -35.0541631643  TIP3      5067            0.0000000000
     33917      5227  TIP3      H2             -4.8836085341       12.2984714717      -35.9132288092  TIP3      5067            0.0000000000
     33918      5228  TIP3      OH2            -5.3451041417       11.4417943695      -32.2816744655  TIP3      5068            0.0000000000
     33919      5228  TIP3      H1             -5.3259396254       11.1912889997      -31.3408328639  TIP3      5068            0.0000000000
     33920      5228  TIP3      H2             -6.2283906459       11.8800535065      -32.3511433693  TIP3      5068            0.0000000000
     33921      5229  TIP3      OH2           -13.2841705137       10.9043002475      -31.2319832914  TIP3      5069            0.0000000000
     33922      5229  TIP3      H1            -13.0789711502       10.5193641450      -30.3534267494  TIP3      5069            0.0000000000
     33923      5229  TIP3      H2            -12.5751667137       10.4849812932      -31.7436932589  TIP3      5069            0.0000000000
     33924      5230  TIP3      OH2            -2.6178895433       15.0189588371      -33.4067800050  TIP3      5070            0.0000000000
     33925      5230  TIP3      H1             -2.7400195795       14.1707846957      -32.9485854736  TIP3      5070            0.0000000000
     33926      5230  TIP3      H2             -2.0824367280       15.5166665772      -32.7586837419  TIP3      5070            0.0000000000
     33927      5231  TIP3      OH2           -12.3206574120       15.8553167105      -32.1817297979  TIP3      5071            0.0000000000
     33928      5231  TIP3      H1            -12.3032382177       15.0951248664      -32.7981004057  TIP3      5071            0.0000000000
     33929      5231  TIP3      H2            -11.3552466983       16.0413947020      -32.1327062080  TIP3      5071            0.0000000000
     33930      5232  TIP3      OH2           -15.3183452211        9.4891720899      -36.8022423414  TIP3      5072            0.0000000000
     33931      5232  TIP3      H1            -15.9594258705       10.1400937094      -36.4680982611  TIP3      5072            0.0000000000
     33932      5232  TIP3      H2            -15.8080291156        9.1946222279      -37.5930849666  TIP3      5072            0.0000000000
     33933      5233  TIP3      OH2           -15.5783084088       11.4507080434      -34.2038476624  TIP3      5073            0.0000000000
     33934      5233  TIP3      H1            -15.0523125439       10.6406880501      -34.0764600694  TIP3      5073            0.0000000000
     33935      5233  TIP3      H2            -14.9334366828       11.9571383073      -34.7209354971  TIP3      5073            0.0000000000
     33936      5234  TIP3      OH2            -4.8516175566       20.0129929232      -34.0592956682  TIP3      5074            0.0000000000
     33937      5234  TIP3      H1             -4.0632810531       19.4583420903      -34.2430767499  TIP3      5074            0.0000000000
     33938      5234  TIP3      H2             -5.0807021907       19.7743980435      -33.1475035570  TIP3      5074            0.0000000000
     33939      5235  TIP3      OH2            -6.0807937890       15.2437730135      -32.1307641200  TIP3      5075            0.0000000000
     33940      5235  TIP3      H1             -6.7824454856       14.5499045402      -32.1037982944  TIP3      5075            0.0000000000
     33941      5235  TIP3      H2             -5.5766332538       15.0523932228      -31.3244911288  TIP3      5075            0.0000000000
     33942      5236  TIP3      OH2             1.6546279024        5.6842423342      -31.4684208426  TIP3      5076            0.0000000000
     33943      5236  TIP3      H1              1.7838759248        6.3596562594      -30.7758661069  TIP3      5076            0.0000000000
     33944      5236  TIP3      H2              2.1184918927        6.0635277114      -32.2325250557  TIP3      5076            0.0000000000
     33945      5237  TIP3      OH2            -3.3288887048        8.7367510663      -31.0572547479  TIP3      5077            0.0000000000
     33946      5237  TIP3      H1             -3.1388658146        7.8210341779      -30.7231669003  TIP3      5077            0.0000000000
     33947      5237  TIP3      H2             -3.6162332798        8.4589811397      -31.9452693159  TIP3      5077            0.0000000000
     33948      5238  TIP3      OH2           -10.6943844438        6.3997405089      -34.5336205732  TIP3      5078            0.0000000000
     33949      5238  TIP3      H1            -10.6173458067        7.3254773942      -34.8541317699  TIP3      5078            0.0000000000
     33950      5238  TIP3      H2            -11.3696725690        6.0680909584      -35.1564065480  TIP3      5078            0.0000000000
     33951      5239  TIP3      OH2            -2.9702589821        6.7603680789      -35.8603333260  TIP3      5079            0.0000000000
     33952      5239  TIP3      H1             -2.4168685729        6.5453777487      -35.0738177574  TIP3      5079            0.0000000000
     33953      5239  TIP3      H2             -2.7855704940        7.7018399080      -35.9717175016  TIP3      5079            0.0000000000
     33954      5240  TIP3      OH2           -13.4129525104        9.7848528864      -33.7636914919  TIP3      5080            0.0000000000
     33955      5240  TIP3      H1            -13.0567134413        9.2331763831      -33.0481464960  TIP3      5080            0.0000000000
     33956      5240  TIP3      H2            -13.5243780261        9.1193234680      -34.4718903208  TIP3      5080            0.0000000000
     33957      5241  TIP3      OH2            -9.6886994811       10.7534666203      -34.3343415589  TIP3      5081            0.0000000000
     33958      5241  TIP3      H1             -8.8889371682       10.3104350429      -33.9709474179  TIP3      5081            0.0000000000
     33959      5241  TIP3      H2            -10.0896532344       10.0051149402      -34.8296711250  TIP3      5081            0.0000000000
     33960      5242  TIP3      OH2             2.0437680044        7.0576358301      -29.1033429636  TIP3      5082            0.0000000000
     33961      5242  TIP3      H1              1.2143282199        7.5514676220      -29.2923061425  TIP3      5082            0.0000000000
     33962      5242  TIP3      H2              2.0593418824        7.1200109632      -28.1328832682  TIP3      5082            0.0000000000
     33963      5243  TIP3      OH2           -12.0174131581        5.5793830788      -30.3059222174  TIP3      5083            0.0000000000
     33964      5243  TIP3      H1            -12.5034684769        6.1206219653      -30.9512097483  TIP3      5083            0.0000000000
     33965      5243  TIP3      H2            -12.4269315628        5.8890856770      -29.4718964061  TIP3      5083            0.0000000000
     33966      5244  TIP3      OH2            -4.6577913601       15.3294472482      -36.1800997698  TIP3      5084            0.0000000000
     33967      5244  TIP3      H1             -4.4139362109       14.5593740931      -36.7116254127  TIP3      5084            0.0000000000
     33968      5244  TIP3      H2             -5.4459572191       15.6783900097      -36.6629160188  TIP3      5084            0.0000000000
     33969      5245  TIP3      OH2            -9.9596952206       13.0960293026      -29.3975453019  TIP3      5085            0.0000000000
     33970      5245  TIP3      H1            -10.2301391619       13.9177972630      -28.9312201703  TIP3      5085            0.0000000000
     33971      5245  TIP3      H2             -9.3119305359       13.4258047879      -30.0679826243  TIP3      5085            0.0000000000
     33972      5246  TIP3      OH2            -1.4774486081        6.6614717275      -33.5442295639  TIP3      5086            0.0000000000
     33973      5246  TIP3      H1             -1.6589144970        5.8767698938      -33.0165930193  TIP3      5086            0.0000000000
     33974      5246  TIP3      H2             -0.8747269989        7.1458760239      -32.9453001432  TIP3      5086            0.0000000000
     33975      5247  TIP3      OH2           -12.3064396580        7.5656463050      -32.3100764125  TIP3      5087            0.0000000000
     33976      5247  TIP3      H1            -11.6468566778        7.9942677996      -31.7182626164  TIP3      5087            0.0000000000
     33977      5247  TIP3      H2            -11.7345615538        7.1559531739      -32.9897337616  TIP3      5087            0.0000000000
     33978      5248  TIP3      OH2           -11.3383997434       15.4481345976      -29.0682546625  TIP3      5088            0.0000000000
     33979      5248  TIP3      H1            -11.0449954290       16.3719146043      -29.0154577364  TIP3      5088            0.0000000000
     33980      5248  TIP3      H2            -12.1189883292       15.4849482164      -28.4687985289  TIP3      5088            0.0000000000
     33981      5249  TIP3      OH2           -15.3452387555       14.7705189500      -38.2865873660  TIP3      5089            0.0000000000
     33982      5249  TIP3      H1            -15.4384419094       15.3565500731      -39.0663504015  TIP3      5089            0.0000000000
     33983      5249  TIP3      H2            -14.9851807672       15.4365127005      -37.6816983570  TIP3      5089            0.0000000000
     33984      5250  TIP3      OH2            -1.3542941898       16.4164816023      -31.3808805825  TIP3      5090            0.0000000000
     33985      5250  TIP3      H1             -2.2652284099       16.7841217547      -31.3074350242  TIP3      5090            0.0000000000
     33986      5250  TIP3      H2             -1.0108138662       17.1350673837      -31.9562547163  TIP3      5090            0.0000000000
     33987      5251  TIP3      OH2            -0.8765595474        5.7800418575      -30.0122895577  TIP3      5091            0.0000000000
     33988      5251  TIP3      H1             -1.5247277326        5.0397792825      -29.8952925924  TIP3      5091            0.0000000000
     33989      5251  TIP3      H2             -0.3956325311        5.5185019574      -30.8101444079  TIP3      5091            0.0000000000
     33990      5252  TIP3      OH2            -8.2762262144        3.2372736765      -32.7603415980  TIP3      5092            0.0000000000
     33991      5252  TIP3      H1             -8.5008430791        2.3165196672      -32.5742414768  TIP3      5092            0.0000000000
     33992      5252  TIP3      H2             -9.1571340965        3.6608004592      -32.5851519156  TIP3      5092            0.0000000000
     33993      5253  TIP3      OH2            -2.5367195584       18.3571615097      -34.7866016434  TIP3      5093            0.0000000000
     33994      5253  TIP3      H1             -2.4375402868       17.6983778357      -35.4898743534  TIP3      5093            0.0000000000
     33995      5253  TIP3      H2             -1.9040014264       19.0420515933      -35.1201047339  TIP3      5093            0.0000000000
     33996      5254  TIP3      OH2            -1.3790305023       16.1860318401      -36.6676066107  TIP3      5094            0.0000000000
     33997      5254  TIP3      H1             -1.9474122790       16.0534251791      -37.4408715407  TIP3      5094            0.0000000000
     33998      5254  TIP3      H2             -1.7937408826       15.6191486789      -35.9871176821  TIP3      5094            0.0000000000
     33999      5255  TIP3      OH2            -0.0792191637       14.8854128578      -27.7773022751  TIP3      5095            0.0000000000
     34000      5255  TIP3      H1             -0.2485554111       14.1190185726      -28.3680793121  TIP3      5095            0.0000000000
     34001      5255  TIP3      H2              0.0136204458       15.5854183337      -28.4547652272  TIP3      5095            0.0000000000
     34002      5256  TIP3      OH2            -5.6198106561       11.6517646303      -38.2247224768  TIP3      5096            0.0000000000
     34003      5256  TIP3      H1             -6.2679072835       12.1948838445      -38.7392827714  TIP3      5096            0.0000000000
     34004      5256  TIP3      H2             -4.7841383652       11.9352557249      -38.6474023453  TIP3      5096            0.0000000000
     34005      5257  TIP3      OH2            -5.6822204734       10.9485455922      -41.0675973675  TIP3      5097            0.0000000000
     34006      5257  TIP3      H1             -4.9261534305       11.1369903556      -40.4778499375  TIP3      5097            0.0000000000
     34007      5257  TIP3      H2             -5.3900436854       10.1232053934      -41.4891229489  TIP3      5097            0.0000000000
     34008      5258  TIP3      OH2             1.1722559611       11.4893758636      -30.3908861847  TIP3      5098            0.0000000000
     34009      5258  TIP3      H1              0.6671039744       12.2455185916      -29.9981487969  TIP3      5098            0.0000000000
     34010      5258  TIP3      H2              1.6758346644       12.0325426593      -31.0287230628  TIP3      5098            0.0000000000
     34011      5259  TIP3      OH2            -1.9264928092       11.9068001721      -37.2038996001  TIP3      5099            0.0000000000
     34012      5259  TIP3      H1             -2.6511974465       12.1286353868      -36.5732899013  TIP3      5099            0.0000000000
     34013      5259  TIP3      H2             -1.2991947583       11.4297240267      -36.6245612573  TIP3      5099            0.0000000000
     34014      5260  TIP3      OH2            -2.0817469693       10.6392470634      -28.0774370451  TIP3      5100            0.0000000000
     34015      5260  TIP3      H1             -2.2374825145       11.4070530556      -27.5004741931  TIP3      5100            0.0000000000
     34016      5260  TIP3      H2             -2.9779383438       10.5204466200      -28.4536502260  TIP3      5100            0.0000000000
     34017      5261  TIP3      OH2           -10.5320667243       13.0519212616      -35.4539123423  TIP3      5101            0.0000000000
     34018      5261  TIP3      H1            -10.7272972198       12.6328383033      -36.3058214323  TIP3      5101            0.0000000000
     34019      5261  TIP3      H2            -10.0810372407       12.3229800647      -34.9762520426  TIP3      5101            0.0000000000
     34020      5262  TIP3      OH2            -9.5351219862       15.8268758202      -32.7284758297  TIP3      5102            0.0000000000
     34021      5262  TIP3      H1             -9.6019427493       15.7958847989      -33.7017664938  TIP3      5102            0.0000000000
     34022      5262  TIP3      H2             -8.8616685425       15.1350778657      -32.5685921872  TIP3      5102            0.0000000000
     34023      5263  TIP3      OH2           -10.4560051866       11.1684316545      -31.7530113503  TIP3      5103            0.0000000000
     34024      5263  TIP3      H1            -10.0452294035       11.1975081234      -32.6475787826  TIP3      5103            0.0000000000
     34025      5263  TIP3      H2             -9.7889519736       11.7541687033      -31.3242736792  TIP3      5103            0.0000000000
     34026      5264  TIP3      OH2            -3.9142068530       17.2563361203      -31.2771981973  TIP3      5104            0.0000000000
     34027      5264  TIP3      H1             -4.0849911545       17.9889657628      -30.6394934619  TIP3      5104            0.0000000000
     34028      5264  TIP3      H2             -4.1180963575       16.4440221877      -30.7646327734  TIP3      5104            0.0000000000
     34029      5265  TIP3      OH2            -9.2821747575       15.9240160413      -27.0647942714  TIP3      5105            0.0000000000
     34030      5265  TIP3      H1             -9.9495872282       16.5017248060      -26.6405869920  TIP3      5105            0.0000000000
     34031      5265  TIP3      H2             -9.8639846250       15.1469884798      -27.2276053766  TIP3      5105            0.0000000000
     34032      5266  TIP3      OH2            -3.2750225870       11.4820177251      -39.4874472062  TIP3      5106            0.0000000000
     34033      5266  TIP3      H1             -2.6671440228       11.4441657414      -38.7136347192  TIP3      5106            0.0000000000
     34034      5266  TIP3      H2             -2.7250470852       11.9557923480      -40.1567883301  TIP3      5106            0.0000000000
     34035      5267  TIP3      OH2           -12.9666135353       12.4292003115      -28.3739569492  TIP3      5107            0.0000000000
     34036      5267  TIP3      H1            -12.1078029567       12.6752397549      -27.9501058905  TIP3      5107            0.0000000000
     34037      5267  TIP3      H2            -13.1796096925       11.6483783131      -27.8323810715  TIP3      5107            0.0000000000
     34038      5268  TIP3      OH2            -5.1621260858       18.1916728412      -36.0631004475  TIP3      5108            0.0000000000
     34039      5268  TIP3      H1             -5.4196655498       19.0966143340      -35.7986281142  TIP3      5108            0.0000000000
     34040      5268  TIP3      H2             -5.9547379881       17.8515623661      -36.5163669809  TIP3      5108            0.0000000000
     34041      5269  TIP3      OH2           -11.4249185496       17.5149832633      -26.4003614815  TIP3      5109            0.0000000000
     34042      5269  TIP3      H1            -11.3359272987       18.0028027962      -27.2442002599  TIP3      5109            0.0000000000
     34043      5269  TIP3      H2            -12.3628420736       17.6579125093      -26.1874708601  TIP3      5109            0.0000000000
     34044      5270  TIP3      OH2             0.6178852957        3.0412483809      -39.2564041230  TIP3      5110            0.0000000000
     34045      5270  TIP3      H1             -0.3581430765        3.1131088503      -39.3209623515  TIP3      5110            0.0000000000
     34046      5270  TIP3      H2              0.8845313460        3.9305310934      -39.5669683634  TIP3      5110            0.0000000000
     34047      5271  TIP3      OH2           -11.6169365809       11.4917585863      -38.0457428766  TIP3      5111            0.0000000000
     34048      5271  TIP3      H1            -12.1171782049       12.2764247013      -38.3773036092  TIP3      5111            0.0000000000
     34049      5271  TIP3      H2            -12.3132359255       10.9156223597      -37.7084773412  TIP3      5111            0.0000000000
     34050      5272  TIP3      OH2             1.6114273986       17.2282904909      -41.2208858539  TIP3      5112            0.0000000000
     34051      5272  TIP3      H1              1.8631376268       18.0356562776      -41.6960729127  TIP3      5112            0.0000000000
     34052      5272  TIP3      H2              2.5041785382       16.9085166051      -40.9400299647  TIP3      5112            0.0000000000
     34053      5273  TIP3      OH2           -15.7250278576       14.0794859912      -28.8006074235  TIP3      5113            0.0000000000
     34054      5273  TIP3      H1            -16.3987578663       13.6565070406      -29.3376080104  TIP3      5113            0.0000000000
     34055      5273  TIP3      H2            -15.0665457708       13.3529624844      -28.7645279913  TIP3      5113            0.0000000000
     34056      5274  TIP3      OH2           -14.8632024916       16.6855199204      -32.2095620726  TIP3      5114            0.0000000000
     34057      5274  TIP3      H1            -13.9913194104       16.2467732786      -32.1016878110  TIP3      5114            0.0000000000
     34058      5274  TIP3      H2            -14.5492028150       17.4696077897      -32.6736330683  TIP3      5114            0.0000000000
     34059      5275  TIP3      OH2             2.5010854066       17.4467444417      -26.3251176641  TIP3      5115            0.0000000000
     34060      5275  TIP3      H1              2.2134138564       16.5370023634      -26.5035922825  TIP3      5115            0.0000000000
     34061      5275  TIP3      H2              1.6181970237       17.8446926039      -26.1140231939  TIP3      5115            0.0000000000
     34062      5276  TIP3      OH2            -6.7270770476       17.0894094200      -27.5024831311  TIP3      5116            0.0000000000
     34063      5276  TIP3      H1             -6.3198391773       17.7819782560      -26.9511563595  TIP3      5116            0.0000000000
     34064      5276  TIP3      H2             -7.4312542310       16.7389130112      -26.9174002677  TIP3      5116            0.0000000000
     34065      5277  TIP3      OH2            -6.1644555916       20.6692100519      -37.8488845544  TIP3      5117            0.0000000000
     34066      5277  TIP3      H1             -5.9143927164       20.9749305098      -38.7488453751  TIP3      5117            0.0000000000
     34067      5277  TIP3      H2             -6.3179865487       21.5127800631      -37.3828045838  TIP3      5117            0.0000000000
     34068      5278  TIP3      OH2           -12.7925689951       19.8761085095      -35.6554187446  TIP3      5118            0.0000000000
     34069      5278  TIP3      H1            -12.4283027172       19.3752515093      -34.9014904505  TIP3      5118            0.0000000000
     34070      5278  TIP3      H2            -13.4090571068       19.2032585102      -35.9971522899  TIP3      5118            0.0000000000
     34071      5279  TIP3      OH2            -2.9372558518       19.6401974466      -40.6270320448  TIP3      5119            0.0000000000
     34072      5279  TIP3      H1             -2.5600285272       18.7847831321      -40.8845423548  TIP3      5119            0.0000000000
     34073      5279  TIP3      H2             -2.9940856381       19.5725016202      -39.6447673323  TIP3      5119            0.0000000000
     34074      5280  TIP3      OH2            -3.5752516146       19.9125195761      -37.9061429192  TIP3      5120            0.0000000000
     34075      5280  TIP3      H1             -4.5243502971       20.0941138104      -37.7448542104  TIP3      5120            0.0000000000
     34076      5280  TIP3      H2             -3.5169251155       18.9808514839      -37.6171697706  TIP3      5120            0.0000000000
     34077      5281  TIP3      OH2            -0.2090222262        8.8945828609      -26.4211419725  TIP3      5121            0.0000000000
     34078      5281  TIP3      H1             -1.0688805965        9.3172992734      -26.6330495538  TIP3      5121            0.0000000000
     34079      5281  TIP3      H2             -0.2956206872        8.0277547009      -26.8900195494  TIP3      5121            0.0000000000
     34080      5282  TIP3      OH2           -13.6303159849       15.6382493494      -27.6938358463  TIP3      5122            0.0000000000
     34081      5282  TIP3      H1            -13.5760571656       15.0383982737      -26.9226563147  TIP3      5122            0.0000000000
     34082      5282  TIP3      H2            -14.5494698242       15.5043007628      -27.9964559558  TIP3      5122            0.0000000000
     34083      5283  TIP3      OH2           -10.6241262867        4.0892494707      -32.0117022765  TIP3      5123            0.0000000000
     34084      5283  TIP3      H1            -11.5902200657        4.0509756804      -32.1843448815  TIP3      5123            0.0000000000
     34085      5283  TIP3      H2            -10.6145594198        4.6852682273      -31.2322104532  TIP3      5123            0.0000000000
     34086      5284  TIP3      OH2            -6.0843048570        3.4861067439      -28.6839847574  TIP3      5124            0.0000000000
     34087      5284  TIP3      H1             -5.6441395654        2.9920789073      -27.9605287104  TIP3      5124            0.0000000000
     34088      5284  TIP3      H2             -7.0247503063        3.4505342901      -28.4056653030  TIP3      5124            0.0000000000
     34089      5285  TIP3      OH2            -2.9601920459        7.8790314549      -27.2593448370  TIP3      5125            0.0000000000
     34090      5285  TIP3      H1             -3.4696625127        7.1888761906      -26.7661598016  TIP3      5125            0.0000000000
     34091      5285  TIP3      H2             -3.7156823629        8.2573685683      -27.7450423395  TIP3      5125            0.0000000000
     34092      5286  TIP3      OH2            -1.8429462568       12.3328418294      -41.5219822555  TIP3      5126            0.0000000000
     34093      5286  TIP3      H1             -1.6651412390       11.4232896056      -41.8273506886  TIP3      5126            0.0000000000
     34094      5286  TIP3      H2             -1.0385902325       12.7944425925      -41.7784777433  TIP3      5126            0.0000000000
     34095      5287  TIP3      OH2            -6.1029509883        6.5024935498      -41.2663664819  TIP3      5127            0.0000000000
     34096      5287  TIP3      H1             -6.5029173711        6.4523320669      -40.3807874408  TIP3      5127            0.0000000000
     34097      5287  TIP3      H2             -6.4647288516        5.6951953543      -41.6645467964  TIP3      5127            0.0000000000
     34098      5288  TIP3      OH2           -10.4570181072        8.7993512083      -30.5899458180  TIP3      5128            0.0000000000
     34099      5288  TIP3      H1            -10.8648083811        9.1222012013      -29.7568900562  TIP3      5128            0.0000000000
     34100      5288  TIP3      H2            -10.4637435770        9.6114980562      -31.1403245073  TIP3      5128            0.0000000000
     34101      5289  TIP3      OH2           -10.7833532782        8.6693147544      -35.8871392268  TIP3      5129            0.0000000000
     34102      5289  TIP3      H1            -11.7569538058        8.7121923428      -35.9677450050  TIP3      5129            0.0000000000
     34103      5289  TIP3      H2            -10.4726030154        8.5421395922      -36.8189542160  TIP3      5129            0.0000000000
     34104      5290  TIP3      OH2            -4.8258974583        9.6163369562      -36.7886077481  TIP3      5130            0.0000000000
     34105      5290  TIP3      H1             -5.0869259085       10.4361049126      -37.2727212846  TIP3      5130            0.0000000000
     34106      5290  TIP3      H2             -4.3660600862        9.1533519849      -37.5271640787  TIP3      5130            0.0000000000
     34107      5291  TIP3      OH2            -5.9801398409        9.8059435926      -25.7812502078  TIP3      5131            0.0000000000
     34108      5291  TIP3      H1             -6.4921608022        9.1403137406      -25.2641529798  TIP3      5131            0.0000000000
     34109      5291  TIP3      H2             -5.1706195406        9.8605490988      -25.2332116317  TIP3      5131            0.0000000000
     34110      5292  TIP3      OH2            -3.8393442102        9.2582946181      -33.9358740257  TIP3      5132            0.0000000000
     34111      5292  TIP3      H1             -4.3914647180       10.0075157785      -34.2316244180  TIP3      5132            0.0000000000
     34112      5292  TIP3      H2             -4.1205590587        8.5745107615      -34.5646441009  TIP3      5132            0.0000000000
     34113      5293  TIP3      OH2           -13.0832004654        8.7634425904      -29.4560767684  TIP3      5133            0.0000000000
     34114      5293  TIP3      H1            -12.7296471056        8.9738733178      -28.5794297526  TIP3      5133            0.0000000000
     34115      5293  TIP3      H2            -13.4785908886        7.8888265444      -29.2554344036  TIP3      5133            0.0000000000
     34116      5294  TIP3      OH2            -9.4238056792        6.4941955702      -41.6620001197  TIP3      5134            0.0000000000
     34117      5294  TIP3      H1            -10.1399147839        6.1602295195      -41.0924193037  TIP3      5134            0.0000000000
     34118      5294  TIP3      H2             -9.6634456506        7.4391333259      -41.7434840538  TIP3      5134            0.0000000000
     34119      5295  TIP3      OH2           -16.1198350160        6.2868364291      -34.7792324020  TIP3      5135            0.0000000000
     34120      5295  TIP3      H1            -15.2535621670        6.0146682519      -34.4433300562  TIP3      5135            0.0000000000
     34121      5295  TIP3      H2            -15.8915369566        6.4538501503      -35.7129975017  TIP3      5135            0.0000000000
     34122      5296  TIP3      OH2           -15.0458890044        6.8688005718      -39.7334860417  TIP3      5136            0.0000000000
     34123      5296  TIP3      H1            -14.4020145913        7.3170898136      -40.3165601933  TIP3      5136            0.0000000000
     34124      5296  TIP3      H2            -15.5365564466        7.6480177921      -39.3949379267  TIP3      5136            0.0000000000
     34125      5297  TIP3      OH2            -4.5287616304       10.7101911460      -29.6361501941  TIP3      5137            0.0000000000
     34126      5297  TIP3      H1             -4.2201048808        9.9430818748      -30.1686176496  TIP3      5137            0.0000000000
     34127      5297  TIP3      H2             -5.2126761096       10.2748951038      -29.0740607278  TIP3      5137            0.0000000000
     34128      5298  TIP3      OH2            -7.6581624345        6.5924164947      -34.9463793050  TIP3      5138            0.0000000000
     34129      5298  TIP3      H1             -8.4547212906        6.6969858004      -34.4051092705  TIP3      5138            0.0000000000
     34130      5298  TIP3      H2             -7.0503139706        6.2375413858      -34.2540132805  TIP3      5138            0.0000000000
     34131      5299  TIP3      OH2           -13.4826722171        7.8085855210      -35.6879782965  TIP3      5139            0.0000000000
     34132      5299  TIP3      H1            -14.2425207305        8.1727986902      -36.1901200889  TIP3      5139            0.0000000000
     34133      5299  TIP3      H2            -13.2783091530        6.9940392054      -36.1947968167  TIP3      5139            0.0000000000
     34134      5300  TIP3      OH2            -9.7752696906        8.0343042751      -38.2228952747  TIP3      5140            0.0000000000
     34135      5300  TIP3      H1             -8.9023459325        8.4580287100      -38.0869499960  TIP3      5140            0.0000000000
     34136      5300  TIP3      H2            -10.0471688619        8.4606885875      -39.0744049052  TIP3      5140            0.0000000000
     34137      5301  TIP3      OH2            -3.5286861817        6.0834928498      -31.1988859981  TIP3      5141            0.0000000000
     34138      5301  TIP3      H1             -4.0485244025        5.7233451756      -30.4516937232  TIP3      5141            0.0000000000
     34139      5301  TIP3      H2             -3.7199234545        5.4197319074      -31.8673571774  TIP3      5141            0.0000000000
     34140      5302  TIP3      OH2           -10.3751851823        8.8794785413      -40.6446904248  TIP3      5142            0.0000000000
     34141      5302  TIP3      H1            -11.0441239392        9.2034678199      -41.2562351090  TIP3      5142            0.0000000000
     34142      5302  TIP3      H2             -9.5748261703        9.3447974909      -40.9796479997  TIP3      5142            0.0000000000
     34143      5303  TIP3      OH2            -0.5817298208       21.4726688469      -24.9581962460  TIP3      5143            0.0000000000
     34144      5303  TIP3      H1              0.0036770432       21.9553341414      -25.5559846126  TIP3      5143            0.0000000000
     34145      5303  TIP3      H2             -0.0433429946       21.4501137780      -24.1512766443  TIP3      5143            0.0000000000
     34146      5304  TIP3      OH2           -13.3955391130       14.3479128478      -25.2009238322  TIP3      5144            0.0000000000
     34147      5304  TIP3      H1            -12.4498630357       14.1459584517      -25.4202456979  TIP3      5144            0.0000000000
     34148      5304  TIP3      H2            -13.7291415491       13.4234128609      -25.2061142733  TIP3      5144            0.0000000000
     34149      5305  TIP3      OH2            -7.6454635160        9.1768952697      -33.1142902546  TIP3      5145            0.0000000000
     34150      5305  TIP3      H1             -6.7326737194        9.4532607255      -33.2537158043  TIP3      5145            0.0000000000
     34151      5305  TIP3      H2             -7.5477110189        8.3684926860      -32.5728110565  TIP3      5145            0.0000000000
     34152      5306  TIP3      OH2           -12.3861186830        5.4847899293      -36.5153249402  TIP3      5146            0.0000000000
     34153      5306  TIP3      H1            -12.6012160190        4.6530955324      -36.0252971758  TIP3      5146            0.0000000000
     34154      5306  TIP3      H2            -12.9633893049        5.3679603177      -37.2842946779  TIP3      5146            0.0000000000
     34155      5307  TIP3      OH2            -8.0891083443        7.5787031966      -30.5278059793  TIP3      5147            0.0000000000
     34156      5307  TIP3      H1             -8.8835857613        8.1195300100      -30.7249073666  TIP3      5147            0.0000000000
     34157      5307  TIP3      H2             -7.5445573165        8.1796187313      -30.0050080170  TIP3      5147            0.0000000000
     34158      5308  TIP3      OH2            -7.3266999535       13.3914110036      -39.3661979122  TIP3      5148            0.0000000000
     34159      5308  TIP3      H1             -8.2921018044       13.4368992914      -39.3643960279  TIP3      5148            0.0000000000
     34160      5308  TIP3      H2             -7.1454183109       14.2130481277      -38.8491263957  TIP3      5148            0.0000000000
     34161      5309  TIP3      OH2            -0.2075675151       13.6681461337      -30.1158148652  TIP3      5149            0.0000000000
     34162      5309  TIP3      H1              0.4077410321       14.1872045291      -30.7072579903  TIP3      5149            0.0000000000
     34163      5309  TIP3      H2             -1.0603199330       14.0511401431      -30.3678789750  TIP3      5149            0.0000000000
     34164      5310  TIP3      OH2            -3.4528285083        6.6496714437      -40.7520099043  TIP3      5150            0.0000000000
     34165      5310  TIP3      H1             -4.3622531748        6.6225491130      -41.1135182205  TIP3      5150            0.0000000000
     34166      5310  TIP3      H2             -3.4687463694        7.5156073025      -40.3116653301  TIP3      5150            0.0000000000
     34167      5311  TIP3      OH2            -5.8813442032       14.3854463548      -27.5448576677  TIP3      5151            0.0000000000
     34168      5311  TIP3      H1             -6.4943989825       13.6922217705      -27.2573833717  TIP3      5151            0.0000000000
     34169      5311  TIP3      H2             -6.3896591643       15.2022587563      -27.3723883698  TIP3      5151            0.0000000000
     34170      5312  TIP3      OH2            -3.4654643472        8.7336711359      -38.8939974637  TIP3      5152            0.0000000000
     34171      5312  TIP3      H1             -2.5701635210        8.6231306964      -38.5015238529  TIP3      5152            0.0000000000
     34172      5312  TIP3      H2             -3.3676253669        9.5592020804      -39.4018962144  TIP3      5152            0.0000000000
     34173      5313  TIP3      OH2           -12.1049096875       13.3455887121      -33.2633247178  TIP3      5153            0.0000000000
     34174      5313  TIP3      H1            -11.7052911087       13.6051960553      -34.1256758643  TIP3      5153            0.0000000000
     34175      5313  TIP3      H2            -11.6190215929       12.5136112816      -33.1228576062  TIP3      5153            0.0000000000
     34176      5314  TIP3      OH2            -5.1638208268       14.9463807254      -40.4812109526  TIP3      5154            0.0000000000
     34177      5314  TIP3      H1             -5.3076634081       15.7016921370      -39.8687947852  TIP3      5154            0.0000000000
     34178      5314  TIP3      H2             -5.8019397342       14.3019192527      -40.0924389499  TIP3      5154            0.0000000000
     34179      5315  TIP3      OH2           -15.6725432507       11.6908033284      -27.2573440108  TIP3      5155            0.0000000000
     34180      5315  TIP3      H1            -15.2687388125       11.4265493779      -26.4077923637  TIP3      5155            0.0000000000
     34181      5315  TIP3      H2            -15.8819147449       10.8267148464      -27.6234351174  TIP3      5155            0.0000000000
     34182      5316  TIP3      OH2            -7.8825373019       11.5778176447      -26.0571913539  TIP3      5156            0.0000000000
     34183      5316  TIP3      H1             -8.6460347889       11.2720903303      -26.5706898777  TIP3      5156            0.0000000000
     34184      5316  TIP3      H2             -7.2906959494       10.7911276261      -26.0510690514  TIP3      5156            0.0000000000
     34185      5317  TIP3      OH2            -3.2310158642       16.9638376900      -27.8971835313  TIP3      5157            0.0000000000
     34186      5317  TIP3      H1             -4.0105175230       17.1448080679      -28.4281455990  TIP3      5157            0.0000000000
     34187      5317  TIP3      H2             -3.6425905348       16.6204760663      -27.0767296567  TIP3      5157            0.0000000000
     34188      5318  TIP3      OH2             1.9488186943        8.8877679154      -39.1742424063  TIP3      5158            0.0000000000
     34189      5318  TIP3      H1              1.1896562198        8.8317622962      -39.7941178752  TIP3      5158            0.0000000000
     34190      5318  TIP3      H2              2.0695852145        9.8606090322      -39.2284409134  TIP3      5158            0.0000000000
     34191      5319  TIP3      OH2             2.1914494105       14.6397739919      -26.4869193405  TIP3      5159            0.0000000000
     34192      5319  TIP3      H1              1.2919279373       14.8055553024      -26.8755799538  TIP3      5159            0.0000000000
     34193      5319  TIP3      H2              2.6787596088       14.4523395961      -27.3212570779  TIP3      5159            0.0000000000
     34194      5320  TIP3      OH2            -0.0465260976       17.3465733279      -38.9034298696  TIP3      5160            0.0000000000
     34195      5320  TIP3      H1             -0.1914724814       17.1246468669      -37.9607412673  TIP3      5160            0.0000000000
     34196      5320  TIP3      H2              0.8230635960       17.7601544969      -38.9116041314  TIP3      5160            0.0000000000
     34197      5321  TIP3      OH2            -2.7191792896       12.5017573051      -32.1509982835  TIP3      5161            0.0000000000
     34198      5321  TIP3      H1             -3.6322452796       12.1579983294      -32.3091165625  TIP3      5161            0.0000000000
     34199      5321  TIP3      H2             -2.2181750022       12.1375525304      -32.9041679287  TIP3      5161            0.0000000000
     34200      5322  TIP3      OH2           -10.4155435946       17.0357823320      -35.7223862227  TIP3      5162            0.0000000000
     34201      5322  TIP3      H1             -9.5648911588       17.2557179607      -36.1260511377  TIP3      5162            0.0000000000
     34202      5322  TIP3      H2            -10.9486760144       16.8276833174      -36.5190907721  TIP3      5162            0.0000000000
     34203      5323  TIP3      OH2           -14.0124579999       11.8899171645      -41.4432926282  TIP3      5163            0.0000000000
     34204      5323  TIP3      H1            -13.5954613564       12.2581524790      -40.6462507039  TIP3      5163            0.0000000000
     34205      5323  TIP3      H2            -14.8513570482       11.5526894424      -41.0731308132  TIP3      5163            0.0000000000
     34206      5324  TIP3      OH2            -8.2015473705       14.7587810928      -35.4310711788  TIP3      5164            0.0000000000
     34207      5324  TIP3      H1             -8.0188707671       15.0796259415      -36.3338332828  TIP3      5164            0.0000000000
     34208      5324  TIP3      H2             -9.0464780792       14.2840569613      -35.5110543773  TIP3      5164            0.0000000000
     34209      5325  TIP3      OH2            -8.1888595999       18.3916774896      -29.3512237997  TIP3      5165            0.0000000000
     34210      5325  TIP3      H1             -7.5357395343       19.0979225701      -29.4593272738  TIP3      5165            0.0000000000
     34211      5325  TIP3      H2             -7.7243836622       17.7969063894      -28.7117567064  TIP3      5165            0.0000000000
     34212      5326  TIP3      OH2           -10.4098192131       20.2534559136      -37.2199436355  TIP3      5166            0.0000000000
     34213      5326  TIP3      H1            -11.2886274027       20.1618832766      -36.7975616315  TIP3      5166            0.0000000000
     34214      5326  TIP3      H2             -9.8781247304       20.6628674516      -36.5019676232  TIP3      5166            0.0000000000
     34215      5327  TIP3      OH2            -4.2823752307       14.6385862330      -29.9045156416  TIP3      5167            0.0000000000
     34216      5327  TIP3      H1             -4.7461335402       14.5401314380      -29.0351663725  TIP3      5167            0.0000000000
     34217      5327  TIP3      H2             -4.1108526642       13.7145092702      -30.1241438957  TIP3      5167            0.0000000000
     34218      5328  TIP3      OH2            -2.5152574714       15.7123889187      -40.8251390278  TIP3      5168            0.0000000000
     34219      5328  TIP3      H1             -2.3093855172       15.1916652710      -40.0253423592  TIP3      5168            0.0000000000
     34220      5328  TIP3      H2             -3.4183722419       15.3360612844      -40.9456275695  TIP3      5168            0.0000000000
     34221      5329  TIP3      OH2            -1.9434091646       19.4755481470      -27.2712077240  TIP3      5169            0.0000000000
     34222      5329  TIP3      H1             -2.4481922872       18.6373850584      -27.3294492876  TIP3      5169            0.0000000000
     34223      5329  TIP3      H2             -1.8608893150       19.7212123718      -28.2184456531  TIP3      5169            0.0000000000
     34224      5330  TIP3      OH2             2.3572429243       20.0988051923      -40.7026758489  TIP3      5170            0.0000000000
     34225      5330  TIP3      H1              2.4749044101       20.4341470970      -41.6235084920  TIP3      5170            0.0000000000
     34226      5330  TIP3      H2              1.6569981657       20.6886383323      -40.3481039942  TIP3      5170            0.0000000000
     34227      5331  TIP3      OH2           -13.7059104500        6.4617891543      -28.1695572078  TIP3      5171            0.0000000000
     34228      5331  TIP3      H1            -13.8105089449        6.8059403922      -27.2647031856  TIP3      5171            0.0000000000
     34229      5331  TIP3      H2            -14.1431034998        5.5935751876      -28.0977886044  TIP3      5171            0.0000000000
     34230      5332  TIP3      OH2            -1.3779106530       14.1108627248      -38.7733972467  TIP3      5172            0.0000000000
     34231      5332  TIP3      H1             -1.5345404227       13.2040400025      -38.4131493220  TIP3      5172            0.0000000000
     34232      5332  TIP3      H2             -0.6048754449       14.3330850951      -38.2213761108  TIP3      5172            0.0000000000
     34233      5333  TIP3      OH2           -14.0607844130       18.1614792703      -29.7653493890  TIP3      5173            0.0000000000
     34234      5333  TIP3      H1            -13.6166666812       17.3530338777      -29.4648836036  TIP3      5173            0.0000000000
     34235      5333  TIP3      H2            -13.8756005386       18.8163477026      -29.0621448618  TIP3      5173            0.0000000000
     34236      5334  TIP3      OH2            -8.8176137022       16.2467068553      -40.4070245410  TIP3      5174            0.0000000000
     34237      5334  TIP3      H1             -8.2729902430       16.0383674745      -39.6082177469  TIP3      5174            0.0000000000
     34238      5334  TIP3      H2             -9.3127943470       17.0261270935      -40.0650541625  TIP3      5174            0.0000000000
     34239      5335  TIP3      OH2           -12.8365122192       13.6101929145      -39.1663942407  TIP3      5175            0.0000000000
     34240      5335  TIP3      H1            -13.7214954373       13.9137779378      -38.8586386532  TIP3      5175            0.0000000000
     34241      5335  TIP3      H2            -12.3513866611       14.4348351880      -38.8796155769  TIP3      5175            0.0000000000
     34242      5336  TIP3      OH2            -4.7924158887        5.8454390734      -28.5661731741  TIP3      5176            0.0000000000
     34243      5336  TIP3      H1             -4.0463234098        5.2347482822      -28.7285856252  TIP3      5176            0.0000000000
     34244      5336  TIP3      H2             -5.5159630168        5.1876934812      -28.4510654072  TIP3      5176            0.0000000000
     34245      5337  TIP3      OH2            -4.2786018990        5.7370951022      -38.3157337967  TIP3      5177            0.0000000000
     34246      5337  TIP3      H1             -3.8275293042        6.1602764184      -39.0782333318  TIP3      5177            0.0000000000
     34247      5337  TIP3      H2             -3.7236428481        6.0312844572      -37.5687568130  TIP3      5177            0.0000000000
     34248      5338  TIP3      OH2            -6.8419877778       18.7203136154      -39.8666112874  TIP3      5178            0.0000000000
     34249      5338  TIP3      H1             -7.6401787729       18.1575511326      -39.8409210874  TIP3      5178            0.0000000000
     34250      5338  TIP3      H2             -6.7723794715       18.8962691349      -38.9063272287  TIP3      5178            0.0000000000
     34251      5339  TIP3      OH2            -6.9895752269        7.7376996263      -37.3594858866  TIP3      5179            0.0000000000
     34252      5339  TIP3      H1             -6.3368671868        8.4291833018      -37.1279531244  TIP3      5179            0.0000000000
     34253      5339  TIP3      H2             -7.2516436440        7.3854511753      -36.4783066065  TIP3      5179            0.0000000000
     34254      5340  TIP3      OH2            -5.8936151825        8.7309186360      -28.3329341657  TIP3      5180            0.0000000000
     34255      5340  TIP3      H1             -6.3014640904        8.9077233015      -27.4583955617  TIP3      5180            0.0000000000
     34256      5340  TIP3      H2             -5.9317407004        7.7571373713      -28.4347380236  TIP3      5180            0.0000000000
     34257      5341  TIP3      OH2            -6.4072478602        4.6248920369      -36.8339047024  TIP3      5181            0.0000000000
     34258      5341  TIP3      H1             -6.3564896457        4.8722363973      -35.8957765478  TIP3      5181            0.0000000000
     34259      5341  TIP3      H2             -5.6088854153        5.0629631626      -37.2118056612  TIP3      5181            0.0000000000
     34260      5342  TIP3      OH2            -9.5396190597       18.9369833767      -39.4077112738  TIP3      5182            0.0000000000
     34261      5342  TIP3      H1             -9.2540583748       19.7934829011      -39.7487570682  TIP3      5182            0.0000000000
     34262      5342  TIP3      H2            -10.0464205263       19.2546964309      -38.6178884941  TIP3      5182            0.0000000000
     34263      5343  TIP3      OH2           -10.7694574649        5.6963961314      -39.3456650757  TIP3      5183            0.0000000000
     34264      5343  TIP3      H1            -10.7191056141        6.5497408703      -38.8707929263  TIP3      5183            0.0000000000
     34265      5343  TIP3      H2             -9.8289338142        5.4969895079      -39.4581551672  TIP3      5183            0.0000000000
     34266      5344  TIP3      OH2            -0.5917399599        6.4299565448      -27.5020345008  TIP3      5184            0.0000000000
     34267      5344  TIP3      H1             -1.5490308626        6.5928745433      -27.3821284945  TIP3      5184            0.0000000000
     34268      5344  TIP3      H2             -0.5921860167        6.3019678676      -28.4849326162  TIP3      5184            0.0000000000
     34269      5345  TIP3      OH2            -1.4103915679       10.4192350900      -33.5115771900  TIP3      5185            0.0000000000
     34270      5345  TIP3      H1             -2.2446159630        9.9023129070      -33.6054891627  TIP3      5185            0.0000000000
     34271      5345  TIP3      H2             -0.7991120740        9.7496287336      -33.1361067059  TIP3      5185            0.0000000000
     34272      5346  TIP3      OH2           -12.1100677922       16.3698344780      -41.5062852509  TIP3      5186            0.0000000000
     34273      5346  TIP3      H1            -12.1076883225       16.5979130196      -40.5347710622  TIP3      5186            0.0000000000
     34274      5346  TIP3      H2            -11.5907675091       15.5456138827      -41.5048235991  TIP3      5186            0.0000000000
     34275      5347  TIP3      OH2           -13.9073250473        8.7548506679      -41.5992225989  TIP3      5187            0.0000000000
     34276      5347  TIP3      H1            -13.4234697119        9.5430076378      -41.8783095928  TIP3      5187            0.0000000000
     34277      5347  TIP3      H2            -14.6648254755        8.7834594145      -42.1964824506  TIP3      5187            0.0000000000
     34278      5348  TIP3      OH2            -0.8743056145       19.1268217909      -31.9502926671  TIP3      5188            0.0000000000
     34279      5348  TIP3      H1             -0.7898885472       19.7553490175      -32.6958141312  TIP3      5188            0.0000000000
     34280      5348  TIP3      H2              0.0096146885       19.2306592436      -31.5614944180  TIP3      5188            0.0000000000
     34281      5349  TIP3      OH2           -13.1787583202        3.6899464711      -32.7392714980  TIP3      5189            0.0000000000
     34282      5349  TIP3      H1            -13.0785983423        3.3092017284      -33.6297472188  TIP3      5189            0.0000000000
     34283      5349  TIP3      H2            -13.3750236483        2.8537146264      -32.2431075844  TIP3      5189            0.0000000000
     34284      5350  TIP3      OH2           -14.2095238856       17.5633947376      -35.7218646523  TIP3      5190            0.0000000000
     34285      5350  TIP3      H1            -14.7814707151       17.6832222812      -36.5277006806  TIP3      5190            0.0000000000
     34286      5350  TIP3      H2            -13.4825866485       17.0320422022      -36.0853717136  TIP3      5190            0.0000000000
     34287      5351  TIP3      OH2           -15.2413203742       20.1360649603      -25.5059929073  TIP3      5191            0.0000000000
     34288      5351  TIP3      H1            -14.4395836653       20.1701054871      -24.9357131358  TIP3      5191            0.0000000000
     34289      5351  TIP3      H2            -15.4142361674       19.1832143142      -25.4554263653  TIP3      5191            0.0000000000
     34290      5352  TIP3      OH2           -10.6813045643       19.1151499589      -24.3137695134  TIP3      5192            0.0000000000
     34291      5352  TIP3      H1             -9.9855872708       18.5749947497      -23.9145632112  TIP3      5192            0.0000000000
     34292      5352  TIP3      H2            -10.8454560833       18.6578408179      -25.1689670308  TIP3      5192            0.0000000000
     34293      5353  TIP3      OH2            -5.1787025857       18.3414568022      -41.8806679888  TIP3      5193            0.0000000000
     34294      5353  TIP3      H1             -5.8418404689       18.2371372344      -41.1604692237  TIP3      5193            0.0000000000
     34295      5353  TIP3      H2             -4.8185951976       17.4586834722      -41.9140973341  TIP3      5193            0.0000000000
     34296      5354  TIP3      OH2            -3.5045121050       15.8192167184      -25.4626544554  TIP3      5194            0.0000000000
     34297      5354  TIP3      H1             -4.3893131045       15.7031357904      -25.0582632121  TIP3      5194            0.0000000000
     34298      5354  TIP3      H2             -3.3106895917       16.6624855406      -24.9876601591  TIP3      5194            0.0000000000
     34299      5355  TIP3      OH2            -1.1476405689       17.9256650205      -42.4069803207  TIP3      5195            0.0000000000
     34300      5355  TIP3      H1             -1.5052708356       17.3284171869      -41.7290669996  TIP3      5195            0.0000000000
     34301      5355  TIP3      H2             -0.3674973996       17.4268606193      -42.7102295170  TIP3      5195            0.0000000000
     34302      5356  TIP3      OH2           -10.8542717040       13.9006607721      -42.0558581156  TIP3      5196            0.0000000000
     34303      5356  TIP3      H1            -10.8573347616       13.3245697284      -41.2505486905  TIP3      5196            0.0000000000
     34304      5356  TIP3      H2             -9.9082533598       13.9210612336      -42.2078262641  TIP3      5196            0.0000000000
     34305      5357  TIP3      OH2            -8.0940277516       14.1883299883      -25.3444826229  TIP3      5197            0.0000000000
     34306      5357  TIP3      H1             -8.6732390545       14.6598124994      -25.9835933420  TIP3      5197            0.0000000000
     34307      5357  TIP3      H2             -8.2911050689       13.2459345413      -25.5716905664  TIP3      5197            0.0000000000
     34308      5358  TIP3      OH2            -2.5325089210       13.8767313424      -27.5162053126  TIP3      5198            0.0000000000
     34309      5358  TIP3      H1             -1.8534113019       14.5682466459      -27.3563597132  TIP3      5198            0.0000000000
     34310      5358  TIP3      H2             -3.3165605202       14.3843495165      -27.2430589298  TIP3      5198            0.0000000000
     34311      5359  TIP3      OH2           -13.7917308581       11.5924826149      -24.8963312188  TIP3      5199            0.0000000000
     34312      5359  TIP3      H1            -13.5905392405       10.6927805658      -24.5811780966  TIP3      5199            0.0000000000
     34313      5359  TIP3      H2            -14.2251250914       11.9229317945      -24.0793424844  TIP3      5199            0.0000000000
     34314      5360  TIP3      OH2           -10.2479631609       11.9799099154      -40.3472294248  TIP3      5200            0.0000000000
     34315      5360  TIP3      H1            -10.6389854357       11.6290583711      -39.5153285699  TIP3      5200            0.0000000000
     34316      5360  TIP3      H2             -9.5773965858       11.3240659089      -40.6115160702  TIP3      5200            0.0000000000
     34317      5361  TIP3      OH2           -10.7059004151       10.5656129101      -28.2225121749  TIP3      5201            0.0000000000
     34318      5361  TIP3      H1            -10.7398762867       11.3594575143      -27.6518338009  TIP3      5201            0.0000000000
     34319      5361  TIP3      H2             -9.8085887493       10.6454671992      -28.6043265639  TIP3      5201            0.0000000000
     34320      5362  TIP3      OH2            -8.2604525505       10.3489499430      -41.3458235772  TIP3      5202            0.0000000000
     34321      5362  TIP3      H1             -8.2841968585       11.0969218630      -41.9824974669  TIP3      5202            0.0000000000
     34322      5362  TIP3      H2             -7.3357827355       10.4543114168      -41.0262042519  TIP3      5202            0.0000000000
     34323      5363  TIP3      OH2            -4.6411143273       12.5978744703      -24.1212879224  TIP3      5203            0.0000000000
     34324      5363  TIP3      H1             -4.1981706865       12.3349899531      -24.9448649808  TIP3      5203            0.0000000000
     34325      5363  TIP3      H2             -5.3681655120       11.9625700265      -24.1259754303  TIP3      5203            0.0000000000
     34326      5364  TIP3      OH2             0.7893946603       13.6553194777       42.3127019040  TIP3      5204            0.0000000000
     34327      5364  TIP3      H1              0.5016152954       13.0407749495       41.6227677584  TIP3      5204            0.0000000000
     34328      5364  TIP3      H2              1.2006194881       14.3382449080       41.7623977726  TIP3      5204            0.0000000000
     34329      5365  TIP3      OH2           -10.2584973176        7.4833868637      -27.0685956349  TIP3      5205            0.0000000000
     34330      5365  TIP3      H1             -9.5537789770        6.7933916237      -27.0779041586  TIP3      5205            0.0000000000
     34331      5365  TIP3      H2             -9.7895459130        8.2418896822      -27.4248468778  TIP3      5205            0.0000000000
     34332      5366  TIP3      OH2            -9.3696550599        5.4032624191      -29.5131683314  TIP3      5206            0.0000000000
     34333      5366  TIP3      H1             -8.7808487293        6.1063480129      -29.8428299347  TIP3      5206            0.0000000000
     34334      5366  TIP3      H2            -10.2368900773        5.7940253123      -29.6961711403  TIP3      5206            0.0000000000
     34335      5367  TIP3      OH2            -7.9404247248       11.4073289007      -28.9936356239  TIP3      5207            0.0000000000
     34336      5367  TIP3      H1             -7.3057543845       11.8696641791      -29.5588910795  TIP3      5207            0.0000000000
     34337      5367  TIP3      H2             -8.6870672621       12.0293864010      -29.1239773856  TIP3      5207            0.0000000000
     34338      5368  TIP3      OH2            -4.2913409407        9.5570896162      -23.7534975587  TIP3      5208            0.0000000000
     34339      5368  TIP3      H1             -4.8052094384        8.7576968415      -23.5217549945  TIP3      5208            0.0000000000
     34340      5368  TIP3      H2             -4.1571678869        9.9832388785      -22.8903014640  TIP3      5208            0.0000000000
     34341      5369  TIP3      OH2            -2.0264443385       12.0972991511      -25.3498851924  TIP3      5209            0.0000000000
     34342      5369  TIP3      H1             -2.6256423426       12.7668660981      -25.7271483710  TIP3      5209            0.0000000000
     34343      5369  TIP3      H2             -1.2061692724       12.3677161516      -25.7878235792  TIP3      5209            0.0000000000
     34344      5370  TIP3      OH2           -11.2800783909        8.5375483998      -24.6573809111  TIP3      5210            0.0000000000
     34345      5370  TIP3      H1            -12.1958079857        8.2075132713      -24.6846250632  TIP3      5210            0.0000000000
     34346      5370  TIP3      H2            -10.9087009349        8.1511380463      -25.4831611041  TIP3      5210            0.0000000000
     34347      5371  TIP3      OH2            -8.7245491540        3.1967489523      -28.2651075372  TIP3      5211            0.0000000000
     34348      5371  TIP3      H1             -8.7617857985        4.1670466005      -28.4649615433  TIP3      5211            0.0000000000
     34349      5371  TIP3      H2             -9.3804094755        2.8827822469      -28.9179954114  TIP3      5211            0.0000000000
     34350      5372  TIP3      OH2            -7.5339589690        8.0834808845      -24.4050856160  TIP3      5212            0.0000000000
     34351      5372  TIP3      H1             -8.2498403378        7.7439666474      -23.8189145323  TIP3      5212            0.0000000000
     34352      5372  TIP3      H2             -7.5531791898        7.3495568959      -25.0666036278  TIP3      5212            0.0000000000
     34353      5373  TIP3      OH2            -4.8024224287        6.7818966291      -25.5879919115  TIP3      5213            0.0000000000
     34354      5373  TIP3      H1             -5.5280555311        6.6013527860      -26.2322135977  TIP3      5213            0.0000000000
     34355      5373  TIP3      H2             -4.9780638246        6.0704606130      -24.9588646430  TIP3      5213            0.0000000000
     34356      5374  TIP3      OH2            -2.2935211782        5.4815007739      -24.0868547234  TIP3      5214            0.0000000000
     34357      5374  TIP3      H1             -2.6442976271        4.5716634438      -24.2209453467  TIP3      5214            0.0000000000
     34358      5374  TIP3      H2             -2.9835279765        5.8629798434      -23.4912144014  TIP3      5214            0.0000000000
     34359      5375  TIP3      OH2           -13.3401705655        6.6886877086      -24.9905240226  TIP3      5215            0.0000000000
     34360      5375  TIP3      H1            -13.2687683127        5.7424150158      -25.2678440322  TIP3      5215            0.0000000000
     34361      5375  TIP3      H2            -13.3690041927        6.6259181226      -24.0104863167  TIP3      5215            0.0000000000
     34362      5376  TIP3      OH2            -9.0710959675        2.5726261042      -25.7280749989  TIP3      5216            0.0000000000
     34363      5376  TIP3      H1             -8.7860565952        1.6652790966      -25.8676402079  TIP3      5216            0.0000000000
     34364      5376  TIP3      H2             -8.9108263444        2.9408237106      -26.6337986801  TIP3      5216            0.0000000000
     34365      5377  TIP3      OH2            -8.0297004807        4.1397447565      -23.8427605715  TIP3      5217            0.0000000000
     34366      5377  TIP3      H1             -8.2761716797        3.5352358389      -24.5883572679  TIP3      5217            0.0000000000
     34367      5377  TIP3      H2             -7.9575257414        4.9614581974      -24.3875376995  TIP3      5217            0.0000000000
     34368      5378  TIP3      OH2            -8.6998592421       21.2090544296      -41.2761018675  TIP3      5218            0.0000000000
     34369      5378  TIP3      H1             -8.3349064627       20.9604927550      -42.1444129334  TIP3      5218            0.0000000000
     34370      5378  TIP3      H2             -9.3069821348       21.9119427659      -41.5705349077  TIP3      5218            0.0000000000
     34371      5379  TIP3      OH2           -14.9623583191       15.6445028528      -40.8562869781  TIP3      5219            0.0000000000
     34372      5379  TIP3      H1            -14.0685174551       15.2879788932      -40.8833429394  TIP3      5219            0.0000000000
     34373      5379  TIP3      H2            -15.4747019047       15.0831030452      -41.4496515454  TIP3      5219            0.0000000000
     34374      5380  TIP3      OH2           -16.6742970501       21.2916157302      -35.9447757236  TIP3      5220            0.0000000000
     34375      5380  TIP3      H1            -17.1868795520       20.8459830200      -36.6573438192  TIP3      5220            0.0000000000
     34376      5380  TIP3      H2            -16.2894117366       20.4922840707      -35.5236651221  TIP3      5220            0.0000000000
     34377      5381  TIP3      OH2           -15.5766522096       19.3808282980      -34.3469661212  TIP3      5221            0.0000000000
     34378      5381  TIP3      H1            -15.1538333168       18.6235746636      -34.8294714485  TIP3      5221            0.0000000000
     34379      5381  TIP3      H2            -14.8494064005       19.7996810384      -33.8629616570  TIP3      5221            0.0000000000
     34380      5382  TIP3      OH2             2.0069377923       20.1393154337      -31.5126689895  TIP3      5222            0.0000000000
     34381      5382  TIP3      H1              2.2914743771       19.9534914796      -30.6094485075  TIP3      5222            0.0000000000
     34382      5382  TIP3      H2              2.8584798085       20.3337003359      -31.9353443099  TIP3      5222            0.0000000000
     34383      5383  TIP3      OH2             1.8527708785       19.8487345251      -28.6139429219  TIP3      5223            0.0000000000
     34384      5383  TIP3      H1              1.4120457069       19.1301557845      -29.1143618426  TIP3      5223            0.0000000000
     34385      5383  TIP3      H2              1.9235677047       19.3902690150      -27.7588080565  TIP3      5223            0.0000000000
     34386      5384  TIP3      OH2             1.3203853552       13.7935083981      -38.4220001104  TIP3      5224            0.0000000000
     34387      5384  TIP3      H1              2.1955138655       14.2109193951      -38.1973981170  TIP3      5224            0.0000000000
     34388      5384  TIP3      H2              1.2587237679       13.0833825608      -37.7369105597  TIP3      5224            0.0000000000
     34389      5385  TIP3      OH2             1.6957242495       12.0119125783      -36.2970194240  TIP3      5225            0.0000000000
     34390      5385  TIP3      H1              1.0134087648       11.3546500678      -36.0201055245  TIP3      5225            0.0000000000
     34391      5385  TIP3      H2              2.0342295889       12.3108753557      -35.4365405495  TIP3      5225            0.0000000000
     34392      5386  TIP3      OH2             1.6015512274       14.7473252347      -31.6636494631  TIP3      5226            0.0000000000
     34393      5386  TIP3      H1              2.3455766926       14.1723025505      -31.9206896896  TIP3      5226            0.0000000000
     34394      5386  TIP3      H2              1.9153778134       15.6129238560      -32.0018808962  TIP3      5226            0.0000000000
     34395      5387  TIP3      OH2             0.1776566972       17.4254719735      -29.3206760355  TIP3      5227            0.0000000000
     34396      5387  TIP3      H1             -0.5943591968       17.6727019703      -28.7882796775  TIP3      5227            0.0000000000
     34397      5387  TIP3      H2             -0.2418439686       17.0091614715      -30.1080479165  TIP3      5227            0.0000000000
     34398      5388  TIP3      OH2             1.2528457022       11.4168060549      -39.8009615536  TIP3      5228            0.0000000000
     34399      5388  TIP3      H1              1.5394553808       11.3585621978      -40.7190095117  TIP3      5228            0.0000000000
     34400      5388  TIP3      H2              1.6660150937       12.2344868255      -39.4740533645  TIP3      5228            0.0000000000
     34401      5389  TIP3      OH2            -0.1005344347        8.7853025365      -41.4902448276  TIP3      5229            0.0000000000
     34402      5389  TIP3      H1              0.6184007444        8.9971677088      -42.1261435462  TIP3      5229            0.0000000000
     34403      5389  TIP3      H2             -0.0754938308        7.8038964858      -41.6038158076  TIP3      5229            0.0000000000
     34404      5390  TIP3      OH2            -0.2327012813       10.1138825799      -35.8983166015  TIP3      5230            0.0000000000
     34405      5390  TIP3      H1             -0.6606912504        9.3809281309      -36.3952444472  TIP3      5230            0.0000000000
     34406      5390  TIP3      H2             -0.6977929226       10.1180439176      -35.0407450180  TIP3      5230            0.0000000000
     34407      5391  TIP3      OH2           -15.3169630291       12.6412752848      -31.7745830914  TIP3      5231            0.0000000000
     34408      5391  TIP3      H1            -15.6653368553       12.2436655896      -32.6081572302  TIP3      5231            0.0000000000
     34409      5391  TIP3      H2            -14.4638030726       12.1596116475      -31.7588406811  TIP3      5231            0.0000000000
     34410      5392  TIP3      OH2             0.9302351027       12.0817077596      -26.2172721040  TIP3      5232            0.0000000000
     34411      5392  TIP3      H1              1.0280537337       11.5371606868      -25.4036193973  TIP3      5232            0.0000000000
     34412      5392  TIP3      H2              1.3197891761       12.9466902343      -25.9888755845  TIP3      5232            0.0000000000
     34413      5393  TIP3      OH2             1.7770111434        9.9158891846      -24.9065292170  TIP3      5233            0.0000000000
     34414      5393  TIP3      H1              1.0041024374        9.6324059027      -25.4501913669  TIP3      5233            0.0000000000
     34415      5393  TIP3      H2              2.4647245492        9.3866712525      -25.3642062617  TIP3      5233            0.0000000000
     34416      5394  TIP3      OH2            -0.1253973921        6.3648559997      -42.6557072777  TIP3      5234            0.0000000000
     34417      5394  TIP3      H1              0.4833602126        5.5977496428      -42.5356593296  TIP3      5234            0.0000000000
     34418      5394  TIP3      H2             -1.0172635838        5.9938162166      -42.6401201504  TIP3      5234            0.0000000000
     34419      5395  TIP3      OH2            -1.0467695502        8.1230707726      -37.7438604371  TIP3      5235            0.0000000000
     34420      5395  TIP3      H1             -0.9169222445        7.2493698408      -37.3156828027  TIP3      5235            0.0000000000
     34421      5395  TIP3      H2             -0.2330324694        8.1607772855      -38.2544341551  TIP3      5235            0.0000000000
     34422      5396  TIP3      OH2            -0.1578747777        8.4607771278      -31.9420986384  TIP3      5236            0.0000000000
     34423      5396  TIP3      H1              0.8047541511        8.5183540815      -31.7565829194  TIP3      5236            0.0000000000
     34424      5396  TIP3      H2             -0.4918463342        8.1934025850      -31.0675518210  TIP3      5236            0.0000000000
     34425      5397  TIP3      OH2            -0.0843496615        8.8297140913      -29.1507898629  TIP3      5237            0.0000000000
     34426      5397  TIP3      H1             -0.7758945422        8.9998835735      -28.4724562916  TIP3      5237            0.0000000000
     34427      5397  TIP3      H2              0.4431007136        9.6454572381      -29.0866761843  TIP3      5237            0.0000000000
     34428      5398  TIP3      OH2           -15.6873396364        7.3074000585      -26.1009667832  TIP3      5238            0.0000000000
     34429      5398  TIP3      H1            -14.8184927168        7.2254269115      -25.6417517071  TIP3      5238            0.0000000000
     34430      5398  TIP3      H2            -16.1449044021        6.4960258863      -25.7828473050  TIP3      5238            0.0000000000
     34431      5399  TIP3      OH2             2.8732139759        3.5136058517      -23.8078099525  TIP3      5239            0.0000000000
     34432      5399  TIP3      H1              3.2262335007        2.7878203101      -24.3601066965  TIP3      5239            0.0000000000
     34433      5399  TIP3      H2              2.5444150937        4.1401001623      -24.4687899874  TIP3      5239            0.0000000000
     34434      5400  TIP3      OH2            -0.4657568196        5.4753411891      -37.1456815990  TIP3      5240            0.0000000000
     34435      5400  TIP3      H1              0.0814817343        4.9475087965      -36.5220458726  TIP3      5240            0.0000000000
     34436      5400  TIP3      H2             -0.6668759177        4.8229290552      -37.8290093946  TIP3      5240            0.0000000000
     34437      5401  TIP3      OH2           -14.6538141887        5.8682696789      -32.2039558566  TIP3      5241            0.0000000000
     34438      5401  TIP3      H1            -14.2177847358        4.9833877234      -32.3398401366  TIP3      5241            0.0000000000
     34439      5401  TIP3      H2            -13.9256995684        6.4894163498      -32.3843624236  TIP3      5241            0.0000000000
     34440      5402  TIP3      OH2           -16.0250110993        8.9415265526      -32.1438314503  TIP3      5242            0.0000000000
     34441      5402  TIP3      H1            -15.6695293972        8.2956447833      -32.7726485499  TIP3      5242            0.0000000000
     34442      5402  TIP3      H2            -15.3841708211        9.6691852841      -32.1343394426  TIP3      5242            0.0000000000
     34443      5403  TIP3      OH2             1.6316320309        5.3907848999      -25.9015217197  TIP3      5243            0.0000000000
     34444      5403  TIP3      H1              0.7938340222        5.7064089740      -26.3176456279  TIP3      5243            0.0000000000
     34445      5403  TIP3      H2              1.6042879461        4.4846377933      -26.2573895875  TIP3      5243            0.0000000000
     34446      5404  TIP3      OH2             1.8406508751        5.5038579505      -40.0430091833  TIP3      5244            0.0000000000
     34447      5404  TIP3      H1              1.9127733138        5.0304405020      -40.9094327050  TIP3      5244            0.0000000000
     34448      5404  TIP3      H2              2.6360344178        6.0694494690      -40.0773447346  TIP3      5244            0.0000000000
     34449      5405  TIP3      OH2           -15.9218134230        5.5674151915      -37.3541659728  TIP3      5245            0.0000000000
     34450      5405  TIP3      H1            -16.8586039389        5.2861929956      -37.2606581750  TIP3      5245            0.0000000000
     34451      5405  TIP3      H2            -15.9388946151        5.9803364925      -38.2329443120  TIP3      5245            0.0000000000
     34452      5406  TIP3      OH2            -1.1421000030       20.2410762406      -35.9717139984  TIP3      5246            0.0000000000
     34453      5406  TIP3      H1             -0.3419110492       20.1573184103      -36.5288520778  TIP3      5246            0.0000000000
     34454      5406  TIP3      H2             -1.0288639827       21.0844064453      -35.5164630373  TIP3      5246            0.0000000000
     34455      5407  TIP3      OH2           -15.6524250801        3.5435915010      -29.5512102073  TIP3      5247            0.0000000000
     34456      5407  TIP3      H1            -16.3782884521        2.8948400390      -29.4482960811  TIP3      5247            0.0000000000
     34457      5407  TIP3      H2            -15.8176471269        3.9505762361      -30.4113899398  TIP3      5247            0.0000000000
     34458      5408  TIP3      OH2           -13.7871481485       17.5654936369      -25.3297102609  TIP3      5248            0.0000000000
     34459      5408  TIP3      H1            -14.4961358428       17.2490290261      -25.9222210465  TIP3      5248            0.0000000000
     34460      5408  TIP3      H2            -13.2942893501       16.7437058933      -25.1728761512  TIP3      5248            0.0000000000
     34461      5409  TIP3      OH2           -10.7636800764       18.4782226402      -28.7589710072  TIP3      5249            0.0000000000
     34462      5409  TIP3      H1            -10.7781537104       19.3421404470      -29.2319944538  TIP3      5249            0.0000000000
     34463      5409  TIP3      H2             -9.8035519382       18.2597632543      -28.8581354445  TIP3      5249            0.0000000000
     34464      5410  TIP3      OH2            -6.3504076342       19.8769209451      -26.1874488106  TIP3      5250            0.0000000000
     34465      5410  TIP3      H1             -6.5159024246       19.4118102451      -25.3286109468  TIP3      5250            0.0000000000
     34466      5410  TIP3      H2             -5.3987728515       20.0741769278      -26.1093685410  TIP3      5250            0.0000000000
     34467      5411  TIP3      OH2            -3.9364979400       21.2256713740      -26.6790537734  TIP3      5251            0.0000000000
     34468      5411  TIP3      H1             -3.2690693447       20.5566193849      -26.9381839145  TIP3      5251            0.0000000000
     34469      5411  TIP3      H2             -3.5455807888       21.4579602604      -25.8118201010  TIP3      5251            0.0000000000
     34470      5412  TIP3      OH2             0.8242524655        3.0793691213      -27.4674205851  TIP3      5252            0.0000000000
     34471      5412  TIP3      H1              0.1425654474        3.5873315107      -27.9394079386  TIP3      5252            0.0000000000
     34472      5412  TIP3      H2              0.6639942950        2.1886140294      -27.8654585916  TIP3      5252            0.0000000000
     34473      5413  TIP3      OH2           -13.7486687382       20.9344579438      -28.9334078021  TIP3      5253            0.0000000000
     34474      5413  TIP3      H1            -14.3371351905       21.5779030165      -29.3456508357  TIP3      5253            0.0000000000
     34475      5413  TIP3      H2            -13.5360402589       21.3837573217      -28.0946413109  TIP3      5253            0.0000000000
     34476      5414  TIP3      OH2           -11.2134575063       20.8401431275      -29.8877562959  TIP3      5254            0.0000000000
     34477      5414  TIP3      H1            -12.1019641708       20.7668674641      -29.4638544463  TIP3      5254            0.0000000000
     34478      5414  TIP3      H2            -11.4180368395       21.3820411484      -30.6675542598  TIP3      5254            0.0000000000
     34479      5415  TIP3      OH2            -6.2591093949       21.1044261445      -31.0229527996  TIP3      5255            0.0000000000
     34480      5415  TIP3      H1             -7.1631548293       21.4618531119      -31.0027578213  TIP3      5255            0.0000000000
     34481      5415  TIP3      H2             -5.9238652841       21.4528927969      -30.1843566966  TIP3      5255            0.0000000000
     34482      5416  TIP3      OH2            -4.0421355807       19.6206064852      -29.8212618964  TIP3      5256            0.0000000000
     34483      5416  TIP3      H1             -4.4628064799       20.2386522349      -30.4433448649  TIP3      5256            0.0000000000
     34484      5416  TIP3      H2             -3.2485254167       20.1227122599      -29.5421460972  TIP3      5256            0.0000000000
     34485      5417  TIP3      OH2            -1.5110990050       20.6500481871      -29.6710806658  TIP3      5257            0.0000000000
     34486      5417  TIP3      H1             -1.3423916253       21.6129369083      -29.7026211016  TIP3      5257            0.0000000000
     34487      5417  TIP3      H2             -1.3171174872       20.4057854753      -30.6025589109  TIP3      5257            0.0000000000
     34488      5418  TIP3      OH2           -13.5183072930       20.0718338326      -31.5695138933  TIP3      5258            0.0000000000
     34489      5418  TIP3      H1            -13.6318591624       19.3782775257      -30.8682073473  TIP3      5258            0.0000000000
     34490      5418  TIP3      H2            -12.8479387929       19.6232317897      -32.1462389900  TIP3      5258            0.0000000000
     34491      5419  TIP3      OH2           -11.9056299050       18.8491768611      -33.2339786584  TIP3      5259            0.0000000000
     34492      5419  TIP3      H1            -11.6062116020       17.9958056327      -33.5883870263  TIP3      5259            0.0000000000
     34493      5419  TIP3      H2            -11.0444033005       19.1660461553      -32.8843324105  TIP3      5259            0.0000000000
     34494      5420  TIP3      OH2            -9.3054194865       19.1474593496      -32.5159050277  TIP3      5260            0.0000000000
     34495      5420  TIP3      H1             -8.9596557945       18.2580144207      -32.3169855513  TIP3      5260            0.0000000000
     34496      5420  TIP3      H2             -9.1129555811       19.6355547947      -31.6981255539  TIP3      5260            0.0000000000
     34497      5421  TIP3      OH2            -6.3138812553        5.1253254764      -33.1054541402  TIP3      5261            0.0000000000
     34498      5421  TIP3      H1             -6.8379331499        4.4555747008      -32.6291204650  TIP3      5261            0.0000000000
     34499      5421  TIP3      H2             -5.7427829540        4.5386292191      -33.6276641772  TIP3      5261            0.0000000000
     34500      5422  TIP3      OH2            -0.3503291944        2.7218881569      -33.3494230177  TIP3      5262            0.0000000000
     34501      5422  TIP3      H1              0.2363218836        3.3754218087      -33.7819586948  TIP3      5262            0.0000000000
     34502      5422  TIP3      H2             -1.2275221784        3.1372837024      -33.4599765144  TIP3      5262            0.0000000000
     34503      5423  TIP3      OH2             1.0616256122        4.1137711802      -35.3891675320  TIP3      5263            0.0000000000
     34504      5423  TIP3      H1              1.7669263316        3.5060436253      -35.6926054276  TIP3      5263            0.0000000000
     34505      5423  TIP3      H2              1.6028415858        4.9095509122      -35.1600772606  TIP3      5263            0.0000000000
     34506      5424  TIP3      OH2           -13.2828039593        3.1582911063      -35.6332783011  TIP3      5264            0.0000000000
     34507      5424  TIP3      H1            -14.1805963068        3.0741982790      -36.0093635842  TIP3      5264            0.0000000000
     34508      5424  TIP3      H2            -12.9132342219        2.2699034155      -35.8332733535  TIP3      5264            0.0000000000
     34509      5425  TIP3      OH2           -14.7096618377        3.0960479636      -39.7950518195  TIP3      5265            0.0000000000
     34510      5425  TIP3      H1            -14.1829074388        3.7660395470      -40.2832783020  TIP3      5265            0.0000000000
     34511      5425  TIP3      H2            -15.2545056376        3.6423598134      -39.2143684928  TIP3      5265            0.0000000000
     34512      5426  TIP3      OH2            -8.6998128015        2.6271070514      -35.4043732388  TIP3      5266            0.0000000000
     34513      5426  TIP3      H1             -7.8182112033        2.3508865814      -35.7517820122  TIP3      5266            0.0000000000
     34514      5426  TIP3      H2             -8.4093208918        2.7029765340      -34.4644471653  TIP3      5266            0.0000000000
     34515      5427  TIP3      OH2            -2.9079172783        3.3665694557      -34.5888291104  TIP3      5267            0.0000000000
     34516      5427  TIP3      H1             -3.3616177434        3.5418486007      -35.4234524821  TIP3      5267            0.0000000000
     34517      5427  TIP3      H2             -3.5677039818        2.7435213066      -34.2272579253  TIP3      5267            0.0000000000
     34518      5428  TIP3      OH2            -1.9457045253        3.3082859631      -38.5857716997  TIP3      5268            0.0000000000
     34519      5428  TIP3      H1             -2.7391179107        3.8580584585      -38.6788409536  TIP3      5268            0.0000000000
     34520      5428  TIP3      H2             -2.3783281960        2.4296953110      -38.4512340165  TIP3      5268            0.0000000000
     34521      5429  TIP3      OH2           -13.9508181057       19.4346226442      -39.9002516181  TIP3      5269            0.0000000000
     34522      5429  TIP3      H1            -14.6017903040       18.9364990947      -39.3574107084  TIP3      5269            0.0000000000
     34523      5429  TIP3      H2            -14.3026995602       20.3379159918      -39.7364924552  TIP3      5269            0.0000000000
     34524      5430  TIP3      OH2           -13.1016039831        4.6538125445      -41.2982399944  TIP3      5270            0.0000000000
     34525      5430  TIP3      H1            -12.2581003724        4.1751526210      -41.3036052404  TIP3      5270            0.0000000000
     34526      5430  TIP3      H2            -12.8595952353        5.4745730423      -40.8426179181  TIP3      5270            0.0000000000
     34527      5431  TIP3      OH2            -7.6586257368        5.6821184825      -38.9756823183  TIP3      5271            0.0000000000
     34528      5431  TIP3      H1             -7.0391011041        5.1045706014      -38.4883808125  TIP3      5271            0.0000000000
     34529      5431  TIP3      H2             -7.4540651451        6.5340954077      -38.5180969419  TIP3      5271            0.0000000000
     34530      5432  TIP3      OH2            -5.3183211116       20.9938920953      -40.3135127148  TIP3      5272            0.0000000000
     34531      5432  TIP3      H1             -4.4800358003       20.5473587838      -40.5593527397  TIP3      5272            0.0000000000
     34532      5432  TIP3      H2             -5.9166905971       20.2510591518      -40.5382378098  TIP3      5272            0.0000000000
     34533      5433  TIP3      OH2             0.7624171218       19.6419235130      -37.7035672896  TIP3      5273            0.0000000000
     34534      5433  TIP3      H1              0.1988296626       19.1270997843      -38.2979192489  TIP3      5273            0.0000000000
     34535      5433  TIP3      H2              0.8966922448       20.4786448988      -38.2047283744  TIP3      5273            0.0000000000
     34536      5434  TIP3      OH2           -13.5332640267        3.9945014002      -25.8431529250  TIP3      5274            0.0000000000
     34537      5434  TIP3      H1            -14.0099457289        3.1499223739      -25.8516654043  TIP3      5274            0.0000000000
     34538      5434  TIP3      H2            -12.6665144852        3.7199383253      -25.4631390754  TIP3      5274            0.0000000000
     34539      5435  TIP3      OH2           -11.3438283397        3.4576224818      -24.1731753217  TIP3      5275            0.0000000000
     34540      5435  TIP3      H1            -10.4788535516        3.8007513228      -24.4669051620  TIP3      5275            0.0000000000
     34541      5435  TIP3      H2            -11.1113653701        2.4954874657      -24.2050902653  TIP3      5275            0.0000000000
     34542      5436  TIP3      OH2           -12.5479229892       19.6385994188      -42.3136805140  TIP3      5276            0.0000000000
     34543      5436  TIP3      H1            -13.0373823759       20.0123690370      -41.5466886207  TIP3      5276            0.0000000000
     34544      5436  TIP3      H2            -11.9895509842       19.0158436267      -41.8261984784  TIP3      5276            0.0000000000
     34545      5437  TIP3      OH2            -3.0773661630        2.7813582569      -24.0898518961  TIP3      5277            0.0000000000
     34546      5437  TIP3      H1             -3.0748446281        2.1407450082      -23.3484752347  TIP3      5277            0.0000000000
     34547      5437  TIP3      H2             -2.1785191062        2.6857176196      -24.4705578519  TIP3      5277            0.0000000000
     34548      5438  TIP3      OH2             0.3333169572       18.9598320204      -26.0560274820  TIP3      5278            0.0000000000
     34549      5438  TIP3      H1             -0.4985878554       19.1817745814      -26.5405847110  TIP3      5278            0.0000000000
     34550      5438  TIP3      H2              0.2752146448       19.6484590360      -25.3706966731  TIP3      5278            0.0000000000
     34551      5439  TIP3      OH2            13.4018494656       12.7386252935      -35.2083599471  TIP3      5279            0.0000000000
     34552      5439  TIP3      H1             14.0421135060       13.3527837801      -34.8125974637  TIP3      5279            0.0000000000
     34553      5439  TIP3      H2             12.9573411333       13.3786198568      -35.7827713375  TIP3      5279            0.0000000000
     34554      5440  TIP3      OH2            13.7386343950       11.5378118459      -32.3329192404  TIP3      5280            0.0000000000
     34555      5440  TIP3      H1             13.7692217818       11.2282344906      -31.3959666798  TIP3      5280            0.0000000000
     34556      5440  TIP3      H2             13.4974766998       10.6998318203      -32.7717116572  TIP3      5280            0.0000000000
     34557      5441  TIP3      OH2             5.6803447362       11.6880246126      -31.1364519505  TIP3      5281            0.0000000000
     34558      5441  TIP3      H1              6.2002748646       10.9555182093      -30.7703710901  TIP3      5281            0.0000000000
     34559      5441  TIP3      H2              6.1234918666       12.4344715111      -30.6930280546  TIP3      5281            0.0000000000
     34560      5442  TIP3      OH2            17.1449183614       14.3669860576      -33.8225566026  TIP3      5282            0.0000000000
     34561      5442  TIP3      H1             17.1458824548       13.8810483640      -32.9845167763  TIP3      5282            0.0000000000
     34562      5442  TIP3      H2             17.3053183363       15.2705255456      -33.4789770434  TIP3      5282            0.0000000000
     34563      5443  TIP3      OH2             6.4347796521       16.1889029743      -32.2938196324  TIP3      5283            0.0000000000
     34564      5443  TIP3      H1              6.1553808491       15.2719984291      -32.4692424005  TIP3      5283            0.0000000000
     34565      5443  TIP3      H2              7.3152829916       16.1388566120      -32.6932177976  TIP3      5283            0.0000000000
     34566      5444  TIP3      OH2             3.4930101007        9.3749537764      -36.8004257552  TIP3      5284            0.0000000000
     34567      5444  TIP3      H1              2.9702454632       10.1540773981      -36.5710201168  TIP3      5284            0.0000000000
     34568      5444  TIP3      H2              3.0043995241        9.0912060015      -37.5961526045  TIP3      5284            0.0000000000
     34569      5445  TIP3      OH2             3.9049616179       11.7853425590      -34.3101591355  TIP3      5285            0.0000000000
     34570      5445  TIP3      H1              4.1057900661       10.8219544817      -34.1970214191  TIP3      5285            0.0000000000
     34571      5445  TIP3      H2              4.2859181656       12.0065773207      -35.1761627589  TIP3      5285            0.0000000000
     34572      5446  TIP3      OH2            14.7841493437       19.8196627492      -33.1916351523  TIP3      5286            0.0000000000
     34573      5446  TIP3      H1             14.9800969121       19.2197401376      -33.9534530633  TIP3      5286            0.0000000000
     34574      5446  TIP3      H2             15.2047310360       19.3399018574      -32.4554779863  TIP3      5286            0.0000000000
     34575      5447  TIP3      OH2            11.6942218454       14.0761167979      -31.3089809925  TIP3      5287            0.0000000000
     34576      5447  TIP3      H1             12.1446310567       14.4928015770      -32.0557311223  TIP3      5287            0.0000000000
     34577      5447  TIP3      H2             12.4250213540       14.1560907565      -30.6559539605  TIP3      5287            0.0000000000
     34578      5448  TIP3      OH2            20.2584589063        5.8289867052      -31.5056643889  TIP3      5288            0.0000000000
     34579      5448  TIP3      H1             20.3257950372        6.5031782982      -30.8040464529  TIP3      5288            0.0000000000
     34580      5448  TIP3      H2             20.8232559003        6.2166922059      -32.1952254634  TIP3      5288            0.0000000000
     34581      5449  TIP3      OH2            15.1066654057        8.6310627590      -31.1822434394  TIP3      5289            0.0000000000
     34582      5449  TIP3      H1             14.4745719314        7.9009167862      -31.0341265461  TIP3      5289            0.0000000000
     34583      5449  TIP3      H2             14.9826721951        8.7472795435      -32.1455679804  TIP3      5289            0.0000000000
     34584      5450  TIP3      OH2             7.9306908406        6.2210968825      -34.2946181063  TIP3      5290            0.0000000000
     34585      5450  TIP3      H1              8.1493053935        7.0564629199      -34.7743571219  TIP3      5290            0.0000000000
     34586      5450  TIP3      H2              7.4664520955        5.7440041509      -35.0286711241  TIP3      5290            0.0000000000
     34587      5451  TIP3      OH2            15.8327415491        6.9651126184      -35.9182535011  TIP3      5291            0.0000000000
     34588      5451  TIP3      H1             16.3278160662        6.2941676080      -35.4232832204  TIP3      5291            0.0000000000
     34589      5451  TIP3      H2             16.5551252932        7.5220898369      -36.2711586500  TIP3      5291            0.0000000000
     34590      5452  TIP3      OH2             4.7376629784        9.3315001017      -33.5409195491  TIP3      5292            0.0000000000
     34591      5452  TIP3      H1              5.3147187707        9.0812773615      -32.8056237269  TIP3      5292            0.0000000000
     34592      5452  TIP3      H2              5.0726243897        8.7881963751      -34.2912654714  TIP3      5292            0.0000000000
     34593      5453  TIP3      OH2             9.7881401577       10.0973826954      -33.9332718471  TIP3      5293            0.0000000000
     34594      5453  TIP3      H1             10.5513769575        9.6275765299      -34.2658652159  TIP3      5293            0.0000000000
     34595      5453  TIP3      H2              9.0784616489        9.7217034233      -34.4857691399  TIP3      5293            0.0000000000
     34596      5454  TIP3      OH2            20.3862818534        7.2840612559      -28.9267481209  TIP3      5294            0.0000000000
     34597      5454  TIP3      H1             20.0692324478        8.2112252561      -28.9763293423  TIP3      5294            0.0000000000
     34598      5454  TIP3      H2             20.9262782245        7.3256468247      -28.1121113848  TIP3      5294            0.0000000000
     34599      5455  TIP3      OH2             6.8999251063        5.9348947025      -30.1186435962  TIP3      5295            0.0000000000
     34600      5455  TIP3      H1              6.7795136837        6.2400117382      -31.0438828516  TIP3      5295            0.0000000000
     34601      5455  TIP3      H2              6.6401462788        6.7243473440      -29.6214288849  TIP3      5295            0.0000000000
     34602      5456  TIP3      OH2            14.2301405845       14.9517160589      -36.6630482477  TIP3      5296            0.0000000000
     34603      5456  TIP3      H1             13.9000057234       15.0478941649      -37.5773305416  TIP3      5296            0.0000000000
     34604      5456  TIP3      H2             14.0193875587       15.8276983959      -36.2965369875  TIP3      5296            0.0000000000
     34605      5457  TIP3      OH2             9.1960067689       13.3910787435      -30.5224868283  TIP3      5297            0.0000000000
     34606      5457  TIP3      H1              8.6463920229       14.0777163857      -30.0918158283  TIP3      5297            0.0000000000
     34607      5457  TIP3      H2              9.9858727498       13.9110041694      -30.7792021981  TIP3      5297            0.0000000000
     34608      5458  TIP3      OH2            17.8470758517        6.4333608079      -33.4240594112  TIP3      5298            0.0000000000
     34609      5458  TIP3      H1             17.6073276127        5.5086574974      -33.5635220770  TIP3      5298            0.0000000000
     34610      5458  TIP3      H2             18.7943829929        6.4136377959      -33.6396468964  TIP3      5298            0.0000000000
     34611      5459  TIP3      OH2             6.8349806557        7.5954967966      -32.2863132239  TIP3      5299            0.0000000000
     34612      5459  TIP3      H1              7.5911254901        8.0784664970      -31.8809272071  TIP3      5299            0.0000000000
     34613      5459  TIP3      H2              7.2396757604        7.2365132685      -33.1129399355  TIP3      5299            0.0000000000
     34614      5460  TIP3      OH2             8.0068450986       15.4838659020      -29.3102455943  TIP3      5300            0.0000000000
     34615      5460  TIP3      H1              7.7356565430       16.1078213579      -30.0000910869  TIP3      5300            0.0000000000
     34616      5460  TIP3      H2              7.1257724752       15.1438388456      -29.0180801079  TIP3      5300            0.0000000000
     34617      5461  TIP3      OH2             3.5701098772       15.1272056200      -38.2029669271  TIP3      5301            0.0000000000
     34618      5461  TIP3      H1              3.8584536910       15.5945991379      -39.0082616950  TIP3      5301            0.0000000000
     34619      5461  TIP3      H2              3.8900496661       15.7097908070      -37.4971243267  TIP3      5301            0.0000000000
     34620      5462  TIP3      OH2            17.5944179327       16.4921486800      -32.0962118653  TIP3      5302            0.0000000000
     34621      5462  TIP3      H1             16.7295072132       16.7822694736      -31.7228126240  TIP3      5302            0.0000000000
     34622      5462  TIP3      H2             17.9830690228       17.3886500866      -32.2085472020  TIP3      5302            0.0000000000
     34623      5463  TIP3      OH2            18.9467212403        3.8881414177      -29.8368436417  TIP3      5303            0.0000000000
     34624      5463  TIP3      H1             18.0895374213        4.3387440755      -29.8203088689  TIP3      5303            0.0000000000
     34625      5463  TIP3      H2             19.4425677581        4.4601320021      -30.4607641527  TIP3      5303            0.0000000000
     34626      5464  TIP3      OH2            10.1172719752        2.8760685125      -32.6850490601  TIP3      5304            0.0000000000
     34627      5464  TIP3      H1              9.8686686915        1.9300294903      -32.6186128303  TIP3      5304            0.0000000000
     34628      5464  TIP3      H2              9.2573546800        3.3022224614      -32.4650355855  TIP3      5304            0.0000000000
     34629      5465  TIP3      OH2            15.7306359392       18.2526907793      -35.1440044267  TIP3      5305            0.0000000000
     34630      5465  TIP3      H1             16.2616008494       17.6072580772      -35.6672660294  TIP3      5305            0.0000000000
     34631      5465  TIP3      H2             16.1942268194       19.0649468606      -35.4235279657  TIP3      5305            0.0000000000
     34632      5466  TIP3      OH2            17.2632458650       16.5646449288      -36.5084840953  TIP3      5306            0.0000000000
     34633      5466  TIP3      H1             17.2000698277       16.1571113263      -37.4001878757  TIP3      5306            0.0000000000
     34634      5466  TIP3      H2             16.9788569613       15.8519500407      -35.9267657407  TIP3      5306            0.0000000000
     34635      5467  TIP3      OH2            18.6688443279       15.1223374309      -28.0645679611  TIP3      5307            0.0000000000
     34636      5467  TIP3      H1             18.8728413935       14.4979730301      -28.7854408168  TIP3      5307            0.0000000000
     34637      5467  TIP3      H2             18.7986743299       15.9786756239      -28.5438171606  TIP3      5307            0.0000000000
     34638      5468  TIP3      OH2            12.8556898977       11.2218551647      -38.3294348937  TIP3      5308            0.0000000000
     34639      5468  TIP3      H1             12.2999997823       12.0343612763      -38.2930588014  TIP3      5308            0.0000000000
     34640      5468  TIP3      H2             12.9627463735       11.1643762803      -39.3129290919  TIP3      5308            0.0000000000
     34641      5469  TIP3      OH2            13.4170952921       10.6478114642      -40.8641614091  TIP3      5309            0.0000000000
     34642      5469  TIP3      H1             13.5688693159        9.7643629995      -40.4695426867  TIP3      5309            0.0000000000
     34643      5469  TIP3      H2             13.3427413280       10.4064971117      -41.8081703235  TIP3      5309            0.0000000000
     34644      5470  TIP3      OH2            20.6447796286       11.2150816658      -30.2684885356  TIP3      5310            0.0000000000
     34645      5470  TIP3      H1             20.1162302807       12.0177392030      -30.0517836787  TIP3      5310            0.0000000000
     34646      5470  TIP3      H2             21.3463483160       11.6565337522      -30.8058088414  TIP3      5310            0.0000000000
     34647      5471  TIP3      OH2            17.4317076281       12.8623441776      -36.9726715862  TIP3      5311            0.0000000000
     34648      5471  TIP3      H1             17.6185502675       13.4352692417      -36.2113677280  TIP3      5311            0.0000000000
     34649      5471  TIP3      H2             18.0791165476       12.1438281538      -36.8307365742  TIP3      5311            0.0000000000
     34650      5472  TIP3      OH2            15.2313920324       10.4794195526      -27.4264956800  TIP3      5312            0.0000000000
     34651      5472  TIP3      H1             15.6068230446       11.0093369172      -26.6950365930  TIP3      5312            0.0000000000
     34652      5472  TIP3      H2             14.6493445184       11.1342577232      -27.8525115996  TIP3      5312            0.0000000000
     34653      5473  TIP3      OH2             8.3229399682       12.3411670983      -35.5437368118  TIP3      5313            0.0000000000
     34654      5473  TIP3      H1              7.8753154096       12.1704953695      -36.4093771060  TIP3      5313            0.0000000000
     34655      5473  TIP3      H2              8.9196881216       11.5888286025      -35.4365343404  TIP3      5313            0.0000000000
     34656      5474  TIP3      OH2             9.6549532174       15.9226208758      -32.9638257642  TIP3      5314            0.0000000000
     34657      5474  TIP3      H1              9.7823730573       15.6308033496      -33.8828958644  TIP3      5314            0.0000000000
     34658      5474  TIP3      H2             10.4010895994       15.5194424162      -32.4948414163  TIP3      5314            0.0000000000
     34659      5475  TIP3      OH2             8.4255801925       11.1674344034      -31.6716079021  TIP3      5315            0.0000000000
     34660      5475  TIP3      H1              8.1498072435       11.4680260100      -32.5556957041  TIP3      5315            0.0000000000
     34661      5475  TIP3      H2              8.6344296837       12.0197785977      -31.2079501577  TIP3      5315            0.0000000000
     34662      5476  TIP3      OH2            15.2009290910       17.2152626283      -31.1269418563  TIP3      5316            0.0000000000
     34663      5476  TIP3      H1             14.5825801268       17.6327169845      -30.4846716679  TIP3      5316            0.0000000000
     34664      5476  TIP3      H2             14.8704236424       16.2936303140      -31.0920513666  TIP3      5316            0.0000000000
     34665      5477  TIP3      OH2             9.6393781217       16.2476704230      -27.2522589382  TIP3      5317            0.0000000000
     34666      5477  TIP3      H1             10.2485899473       16.9601187675      -27.5209917810  TIP3      5317            0.0000000000
     34667      5477  TIP3      H2              9.3590307856       15.8672900476      -28.1115187307  TIP3      5317            0.0000000000
     34668      5478  TIP3      OH2            15.7043085153       11.5093009227      -39.4567884779  TIP3      5318            0.0000000000
     34669      5478  TIP3      H1             16.4389983996       11.8892649940      -39.9853357247  TIP3      5318            0.0000000000
     34670      5478  TIP3      H2             14.9632482347       11.7405391493      -40.0561494560  TIP3      5318            0.0000000000
     34671      5479  TIP3      OH2             5.9760624779       12.2046458671      -28.3864464011  TIP3      5319            0.0000000000
     34672      5479  TIP3      H1              6.8659711777       12.5564855025      -28.2354397067  TIP3      5319            0.0000000000
     34673      5479  TIP3      H2              5.8378100183       11.8564607724      -27.4789649548  TIP3      5319            0.0000000000
     34674      5480  TIP3      OH2            12.6696500350       17.4450990753      -36.3671511444  TIP3      5320            0.0000000000
     34675      5480  TIP3      H1             13.4650270399       17.9286987696      -36.6746218650  TIP3      5320            0.0000000000
     34676      5480  TIP3      H2             12.3527748598       17.0959156379      -37.2209518705  TIP3      5320            0.0000000000
     34677      5481  TIP3      OH2             7.0907457325       19.0395088086      -25.7994266937  TIP3      5321            0.0000000000
     34678      5481  TIP3      H1              7.2802379561       19.1164441069      -26.7532752926  TIP3      5321            0.0000000000
     34679      5481  TIP3      H2              6.1800697458       19.3447313631      -25.7182334112  TIP3      5321            0.0000000000
     34680      5482  TIP3      OH2            19.4761560290        2.8424155558      -39.4953525901  TIP3      5322            0.0000000000
     34681      5482  TIP3      H1             18.4989684653        2.9199491036      -39.5016985038  TIP3      5322            0.0000000000
     34682      5482  TIP3      H2             19.7427352521        3.7471360921      -39.7061139173  TIP3      5322            0.0000000000
     34683      5483  TIP3      OH2             6.9274721031       11.7398830661      -37.8418805631  TIP3      5323            0.0000000000
     34684      5483  TIP3      H1              6.6122740785       12.5843032662      -38.2411785391  TIP3      5323            0.0000000000
     34685      5483  TIP3      H2              6.3928304256       11.0968084058      -38.3267847592  TIP3      5323            0.0000000000
     34686      5484  TIP3      OH2            20.1582885530       17.1004600376      -41.8132811183  TIP3      5324            0.0000000000
     34687      5484  TIP3      H1             20.7731705417       17.8343690817      -41.9539245974  TIP3      5324            0.0000000000
     34688      5484  TIP3      H2             20.7500053601       16.4480267289      -41.3984725008  TIP3      5324            0.0000000000
     34689      5485  TIP3      OH2             3.2903755164       13.7253230125      -28.7001550975  TIP3      5325            0.0000000000
     34690      5485  TIP3      H1              2.8957665982       13.6255597993      -29.5842924609  TIP3      5325            0.0000000000
     34691      5485  TIP3      H2              3.5239840855       12.8054748866      -28.4558827072  TIP3      5325            0.0000000000
     34692      5486  TIP3      OH2             3.2261895525       16.8664354172      -32.2056503225  TIP3      5326            0.0000000000
     34693      5486  TIP3      H1              4.1691464901       16.7134167837      -32.0153376352  TIP3      5326            0.0000000000
     34694      5486  TIP3      H2              3.1002416005       17.6769917133      -31.6916962098  TIP3      5326            0.0000000000
     34695      5487  TIP3      OH2            21.3689118880       17.3968931607      -26.3371513004  TIP3      5327            0.0000000000
     34696      5487  TIP3      H1             21.2186866583       16.5128896627      -26.7178595323  TIP3      5327            0.0000000000
     34697      5487  TIP3      H2             20.4770973837       17.5275202323      -25.9524154933  TIP3      5327            0.0000000000
     34698      5488  TIP3      OH2            12.3068820120       16.7062862565      -26.2369846891  TIP3      5328            0.0000000000
     34699      5488  TIP3      H1             12.7370181774       17.1605205561      -27.0039739077  TIP3      5328            0.0000000000
     34700      5488  TIP3      H2             11.7891537092       16.0123925237      -26.6750264813  TIP3      5328            0.0000000000
     34701      5489  TIP3      OH2            11.8125819765       21.7161606821      -38.0867617551  TIP3      5329            0.0000000000
     34702      5489  TIP3      H1             12.1573729331       21.5839459212      -39.0021026618  TIP3      5329            0.0000000000
     34703      5489  TIP3      H2             12.6271067131       21.9396041738      -37.5883984095  TIP3      5329            0.0000000000
     34704      5490  TIP3      OH2             6.2155964887       19.5987093266      -35.7725139620  TIP3      5330            0.0000000000
     34705      5490  TIP3      H1              6.4742001411       19.2950828048      -34.8834297336  TIP3      5330            0.0000000000
     34706      5490  TIP3      H2              5.4852310432       18.9668646317      -35.9588695228  TIP3      5330            0.0000000000
     34707      5491  TIP3      OH2            15.6349755933       20.1079761587      -40.8541467380  TIP3      5331            0.0000000000
     34708      5491  TIP3      H1             16.1499122077       19.4935026045      -41.4035815418  TIP3      5331            0.0000000000
     34709      5491  TIP3      H2             16.1203956965       19.9485384561      -40.0079213379  TIP3      5331            0.0000000000
     34710      5492  TIP3      OH2            14.2395558897       19.7027891081      -37.3081037892  TIP3      5332            0.0000000000
     34711      5492  TIP3      H1             13.7256819521       19.3900328716      -38.0762914759  TIP3      5332            0.0000000000
     34712      5492  TIP3      H2             15.1525083820       19.4714170044      -37.5519967205  TIP3      5332            0.0000000000
     34713      5493  TIP3      OH2            18.3637955966        8.7402547824      -26.1627028374  TIP3      5333            0.0000000000
     34714      5493  TIP3      H1             17.5073624797        8.9970249049      -26.5549514496  TIP3      5333            0.0000000000
     34715      5493  TIP3      H2             18.3676027234        7.7716717813      -26.1425341443  TIP3      5333            0.0000000000
     34716      5494  TIP3      OH2             5.5220161159       15.1239684718      -28.3880974113  TIP3      5334            0.0000000000
     34717      5494  TIP3      H1              5.6192376620       14.5812772060      -27.5693737441  TIP3      5334            0.0000000000
     34718      5494  TIP3      H2              4.6628062678       14.7391801209      -28.6716645314  TIP3      5334            0.0000000000
     34719      5495  TIP3      OH2             7.9929768858        4.0784077216      -31.7487019079  TIP3      5335            0.0000000000
     34720      5495  TIP3      H1              7.0601457340        4.0673208133      -32.0674993941  TIP3      5335            0.0000000000
     34721      5495  TIP3      H2              7.8455563889        4.0617295823      -30.7859007824  TIP3      5335            0.0000000000
     34722      5496  TIP3      OH2            13.0740006380        3.6168193508      -28.5914872735  TIP3      5336            0.0000000000
     34723      5496  TIP3      H1             13.3310240799        3.1707234171      -27.7528922227  TIP3      5336            0.0000000000
     34724      5496  TIP3      H2             12.0937324185        3.5790921357      -28.5354915976  TIP3      5336            0.0000000000
     34725      5497  TIP3      OH2            16.1434760070        7.9139006340      -27.7112298222  TIP3      5337            0.0000000000
     34726      5497  TIP3      H1             15.6528661967        7.3263300501      -27.1019786073  TIP3      5337            0.0000000000
     34727      5497  TIP3      H2             15.5532838069        8.7135478116      -27.7045140159  TIP3      5337            0.0000000000
     34728      5498  TIP3      OH2            17.2089583655       12.4664631321      -41.5267633037  TIP3      5338            0.0000000000
     34729      5498  TIP3      H1             16.7955475576       13.3067269098      -41.7876064192  TIP3      5338            0.0000000000
     34730      5498  TIP3      H2             18.1278897804       12.6270361629      -41.8325656847  TIP3      5338            0.0000000000
     34731      5499  TIP3      OH2            12.6033734666        6.7471680520      -41.5476007881  TIP3      5339            0.0000000000
     34732      5499  TIP3      H1             11.6348730987        6.6849039620      -41.4432572278  TIP3      5339            0.0000000000
     34733      5499  TIP3      H2             12.6500546497        6.7220109154      -42.5280612184  TIP3      5339            0.0000000000
     34734      5500  TIP3      OH2             8.5501831773        8.7620983271      -30.7306324736  TIP3      5340            0.0000000000
     34735      5500  TIP3      H1              8.1191631919        9.1185027127      -29.9305534629  TIP3      5340            0.0000000000
     34736      5500  TIP3      H2              8.6691388969        9.6313133560      -31.1804229227  TIP3      5340            0.0000000000
     34737      5501  TIP3      OH2             8.2595165676        8.5701553932      -35.5675450171  TIP3      5341            0.0000000000
     34738      5501  TIP3      H1              7.3251155714        8.7209526000      -35.8269251179  TIP3      5341            0.0000000000
     34739      5501  TIP3      H2              8.6834467866        8.4286029090      -36.4472944654  TIP3      5341            0.0000000000
     34740      5502  TIP3      OH2            13.8383379017        9.1033701001      -37.0652812730  TIP3      5342            0.0000000000
     34741      5502  TIP3      H1             13.2868123862        9.8362950274      -37.4259031830  TIP3      5342            0.0000000000
     34742      5502  TIP3      H2             14.4628584407        8.9518818955      -37.8155078350  TIP3      5342            0.0000000000
     34743      5503  TIP3      OH2            13.4284302821        8.8663673292      -25.6397022261  TIP3      5343            0.0000000000
     34744      5503  TIP3      H1             12.6570953304        9.4387165565      -25.8013936296  TIP3      5343            0.0000000000
     34745      5503  TIP3      H2             13.9072715116        9.3908745219      -24.9827368364  TIP3      5343            0.0000000000
     34746      5504  TIP3      OH2            15.0125679130        9.0849485776      -34.0298674416  TIP3      5344            0.0000000000
     34747      5504  TIP3      H1             14.6192158655        9.7425349863      -34.6226066520  TIP3      5344            0.0000000000
     34748      5504  TIP3      H2             15.0518217254        8.3253084401      -34.6506873270  TIP3      5344            0.0000000000
     34749      5505  TIP3      OH2             5.8810873579        9.0430131639      -29.3543392054  TIP3      5345            0.0000000000
     34750      5505  TIP3      H1              6.5247908857        9.5799209829      -28.8447558208  TIP3      5345            0.0000000000
     34751      5505  TIP3      H2              5.6159275362        8.3840308403      -28.6762532592  TIP3      5345            0.0000000000
     34752      5506  TIP3      OH2             9.6045429257        6.5598132546      -41.8583868243  TIP3      5346            0.0000000000
     34753      5506  TIP3      H1              8.9342941363        6.2704260146      -41.1968472157  TIP3      5346            0.0000000000
     34754      5506  TIP3      H2              9.2700873771        7.4707800737      -42.0206830762  TIP3      5346            0.0000000000
     34755      5507  TIP3      OH2             2.8667043366        6.1237487364      -34.6248926757  TIP3      5347            0.0000000000
     34756      5507  TIP3      H1              3.7390467529        6.0256765566      -34.2357407040  TIP3      5347            0.0000000000
     34757      5507  TIP3      H2              3.0970854191        6.4443576883      -35.5196695102  TIP3      5347            0.0000000000
     34758      5508  TIP3      OH2             4.0681238229        7.1046616357      -39.6066405905  TIP3      5348            0.0000000000
     34759      5508  TIP3      H1              4.5240912986        7.4646071750      -40.4050791972  TIP3      5348            0.0000000000
     34760      5508  TIP3      H2              3.4093703910        7.8095915752      -39.4364239353  TIP3      5348            0.0000000000
     34761      5509  TIP3      OH2            14.0422533627       10.6730308138      -29.8595141469  TIP3      5349            0.0000000000
     34762      5509  TIP3      H1             14.4123279641        9.8244425890      -30.1747567295  TIP3      5349            0.0000000000
     34763      5509  TIP3      H2             13.1946866381       10.3005553028      -29.5333537166  TIP3      5349            0.0000000000
     34764      5510  TIP3      OH2            10.8848709084        6.6291380497      -34.3655659643  TIP3      5350            0.0000000000
     34765      5510  TIP3      H1             10.2959200542        6.0119655393      -34.8292203600  TIP3      5350            0.0000000000
     34766      5510  TIP3      H2             11.6551959606        6.0433597233      -34.2040266115  TIP3      5350            0.0000000000
     34767      5511  TIP3      OH2             5.5708028246        7.7237805877      -35.8734229773  TIP3      5351            0.0000000000
     34768      5511  TIP3      H1              4.9079465415        8.2289611315      -36.3928870192  TIP3      5351            0.0000000000
     34769      5511  TIP3      H2              5.6969725445        6.9117943806      -36.4023188135  TIP3      5351            0.0000000000
     34770      5512  TIP3      OH2             9.1633383352        8.4981804601      -38.3068262225  TIP3      5352            0.0000000000
     34771      5512  TIP3      H1              9.9604078432        8.9801893277      -38.5641751105  TIP3      5352            0.0000000000
     34772      5512  TIP3      H2              8.5698726754        8.7541270878      -39.0437343271  TIP3      5352            0.0000000000
     34773      5513  TIP3      OH2            15.0486475074        5.6979033496      -31.9648935084  TIP3      5353            0.0000000000
     34774      5513  TIP3      H1             14.5137701972        5.2309118224      -31.2975403518  TIP3      5353            0.0000000000
     34775      5513  TIP3      H2             15.2314943525        4.9941923542      -32.5995442776  TIP3      5353            0.0000000000
     34776      5514  TIP3      OH2             8.4066500207        8.7760534795      -41.0585640868  TIP3      5354            0.0000000000
     34777      5514  TIP3      H1              7.6522902749        8.9586214762      -41.6544635425  TIP3      5354            0.0000000000
     34778      5514  TIP3      H2              8.8809677655        9.6151621958      -41.1943095680  TIP3      5354            0.0000000000
     34779      5515  TIP3      OH2            18.8901881664       21.9546566665      -25.2514500667  TIP3      5355            0.0000000000
     34780      5515  TIP3      H1             19.0528499827       21.9972101999      -26.2151372101  TIP3      5355            0.0000000000
     34781      5515  TIP3      H2             19.5809886432       22.5830465061      -24.9768941684  TIP3      5355            0.0000000000
     34782      5516  TIP3      OH2             5.8767554205       14.2862609958      -25.7831815260  TIP3      5356            0.0000000000
     34783      5516  TIP3      H1              6.6308230727       13.9180657808      -25.2859625218  TIP3      5356            0.0000000000
     34784      5516  TIP3      H2              5.1438474286       13.9569349268      -25.2351102997  TIP3      5356            0.0000000000
     34785      5517  TIP3      OH2            12.5744109923        9.1825217444      -32.6379401317  TIP3      5357            0.0000000000
     34786      5517  TIP3      H1             13.1461198194        8.7472525261      -33.2935821887  TIP3      5357            0.0000000000
     34787      5517  TIP3      H2             11.8962763755        8.5105332411      -32.4849678557  TIP3      5357            0.0000000000
     34788      5518  TIP3      OH2             6.8649532984        4.8884117208      -36.4586316653  TIP3      5358            0.0000000000
     34789      5518  TIP3      H1              6.1716829289        4.2631200194      -36.1675873535  TIP3      5358            0.0000000000
     34790      5518  TIP3      H2              7.3263734604        4.3900153625      -37.1532529862  TIP3      5358            0.0000000000
     34791      5519  TIP3      OH2            10.8612354439        7.6242593580      -30.2461670263  TIP3      5359            0.0000000000
     34792      5519  TIP3      H1             10.1533680022        8.2410048016      -30.5108773267  TIP3      5359            0.0000000000
     34793      5519  TIP3      H2             11.4698246453        8.1930591081      -29.7247736640  TIP3      5359            0.0000000000
     34794      5520  TIP3      OH2            11.5623144276       13.4892091278      -38.6179820005  TIP3      5360            0.0000000000
     34795      5520  TIP3      H1             10.7390627062       13.1214929131      -39.0269711917  TIP3      5360            0.0000000000
     34796      5520  TIP3      H2             11.2146143091       13.8100266276      -37.7551016813  TIP3      5360            0.0000000000
     34797      5521  TIP3      OH2            18.9887961066       13.3577596944      -30.0695483689  TIP3      5361            0.0000000000
     34798      5521  TIP3      H1             19.5703082772       13.9940175468      -30.5709540057  TIP3      5361            0.0000000000
     34799      5521  TIP3      H2             18.1717326635       13.4976274847      -30.5717862437  TIP3      5361            0.0000000000
     34800      5522  TIP3      OH2            15.3455198827        6.7934976685      -40.8029290172  TIP3      5362            0.0000000000
     34801      5522  TIP3      H1             14.5224097346        7.0271935228      -41.2682237655  TIP3      5362            0.0000000000
     34802      5522  TIP3      H2             15.6613234620        7.6957077241      -40.6138538296  TIP3      5362            0.0000000000
     34803      5523  TIP3      OH2            12.6435923798       14.3244760058      -27.5521318389  TIP3      5363            0.0000000000
     34804      5523  TIP3      H1             12.3532493969       13.8346573581      -26.7607250339  TIP3      5363            0.0000000000
     34805      5523  TIP3      H2             13.3152439085       14.9010132873      -27.1643331358  TIP3      5363            0.0000000000
     34806      5524  TIP3      OH2            15.7150671772        8.8407719535      -38.9120400230  TIP3      5364            0.0000000000
     34807      5524  TIP3      H1             16.4731068434        8.6258545087      -38.3299045584  TIP3      5364            0.0000000000
     34808      5524  TIP3      H2             15.9697319440        9.7160398380      -39.2671214711  TIP3      5364            0.0000000000
     34809      5525  TIP3      OH2             6.3012662815       13.3078884681      -33.1821236473  TIP3      5365            0.0000000000
     34810      5525  TIP3      H1              6.4707221288       13.3230843524      -34.1393715256  TIP3      5365            0.0000000000
     34811      5525  TIP3      H2              5.8521715398       12.4596090189      -33.0221092402  TIP3      5365            0.0000000000
     34812      5526  TIP3      OH2            12.8725970731       15.8184724729      -38.8651074171  TIP3      5366            0.0000000000
     34813      5526  TIP3      H1             13.4527000618       15.7604837608      -39.6671846919  TIP3      5366            0.0000000000
     34814      5526  TIP3      H2             12.3875642355       14.9728332531      -38.9874810007  TIP3      5366            0.0000000000
     34815      5527  TIP3      OH2             2.9504274077       11.1523714854      -27.7509275758  TIP3      5367            0.0000000000
     34816      5527  TIP3      H1              3.3256111554       10.8169821197      -26.9238698566  TIP3      5367            0.0000000000
     34817      5527  TIP3      H2              2.0822200806       11.4552558970      -27.4131627447  TIP3      5367            0.0000000000
     34818      5528  TIP3      OH2            11.1854060932       10.7675212453      -26.5283538020  TIP3      5368            0.0000000000
     34819      5528  TIP3      H1             10.3307719192       11.1582092800      -26.2278268723  TIP3      5368            0.0000000000
     34820      5528  TIP3      H2             11.8382923927       11.2902699872      -26.0415560394  TIP3      5368            0.0000000000
     34821      5529  TIP3      OH2            15.5302025080       16.4807522625      -27.3845971221  TIP3      5369            0.0000000000
     34822      5529  TIP3      H1             14.9761482838       16.8399027823      -28.1252951505  TIP3      5369            0.0000000000
     34823      5529  TIP3      H2             15.1838772512       17.0124647212      -26.6482935768  TIP3      5369            0.0000000000
     34824      5530  TIP3      OH2            20.9859450066        8.6732939612      -39.2834263446  TIP3      5370            0.0000000000
     34825      5530  TIP3      H1             20.2133476149        8.6790935284      -39.8780953394  TIP3      5370            0.0000000000
     34826      5530  TIP3      H2             21.1217476186        9.6439068436      -39.2457018478  TIP3      5370            0.0000000000
     34827      5531  TIP3      OH2            20.9206704820       14.6109597668      -26.6700445208  TIP3      5371            0.0000000000
     34828      5531  TIP3      H1             20.0371217951       14.8009233128      -27.0657071537  TIP3      5371            0.0000000000
     34829      5531  TIP3      H2             21.4618214166       14.4323397029      -27.4782278732  TIP3      5371            0.0000000000
     34830      5532  TIP3      OH2            19.5577024341       17.1705706779      -38.7552451307  TIP3      5372            0.0000000000
     34831      5532  TIP3      H1             18.9064055740       17.3826240706      -38.0667558640  TIP3      5372            0.0000000000
     34832      5532  TIP3      H2             19.1727940695       17.6504304781      -39.5030501124  TIP3      5372            0.0000000000
     34833      5533  TIP3      OH2            16.5353772133       12.5348509015      -31.7878113859  TIP3      5373            0.0000000000
     34834      5533  TIP3      H1             15.5840752076       12.5227852236      -32.0065834129  TIP3      5373            0.0000000000
     34835      5533  TIP3      H2             16.8872336470       11.9766700982      -32.5125367211  TIP3      5373            0.0000000000
     34836      5534  TIP3      OH2             8.7148415061       16.6766189191      -35.6217209176  TIP3      5374            0.0000000000
     34837      5534  TIP3      H1              8.7513672271       17.6363760529      -35.7769613921  TIP3      5374            0.0000000000
     34838      5534  TIP3      H2              8.1669925168       16.4007383702      -36.3900911284  TIP3      5374            0.0000000000
     34839      5535  TIP3      OH2             4.0470131816       11.8377021191      -40.3424576236  TIP3      5375            0.0000000000
     34840      5535  TIP3      H1              4.8091971464       11.4888569927      -40.8519988830  TIP3      5375            0.0000000000
     34841      5535  TIP3      H2              4.5483467929       12.5327954339      -39.8658335482  TIP3      5375            0.0000000000
     34842      5536  TIP3      OH2            10.6447083116       14.0358715535      -36.0681720074  TIP3      5376            0.0000000000
     34843      5536  TIP3      H1             10.4362445959       14.9735086839      -36.1777109882  TIP3      5376            0.0000000000
     34844      5536  TIP3      H2              9.7522075304       13.6682763500      -35.9153226876  TIP3      5376            0.0000000000
     34845      5537  TIP3      OH2            10.5957034095       18.7480215013      -29.2240298315  TIP3      5377            0.0000000000
     34846      5537  TIP3      H1             10.8737651788       19.6636555067      -29.3933219936  TIP3      5377            0.0000000000
     34847      5537  TIP3      H2             11.5112741071       18.3735919194      -29.2199601518  TIP3      5377            0.0000000000
     34848      5538  TIP3      OH2             8.8703394216       19.4454157447      -36.2075780478  TIP3      5378            0.0000000000
     34849      5538  TIP3      H1              7.8847058753       19.4111652668      -36.2961468628  TIP3      5378            0.0000000000
     34850      5538  TIP3      H2              8.9621516455       20.4234993549      -36.1075579521  TIP3      5378            0.0000000000
     34851      5539  TIP3      OH2            14.0853031386       14.4818570048      -30.2105474519  TIP3      5379            0.0000000000
     34852      5539  TIP3      H1             13.7134049834       14.5770500384      -29.3084291947  TIP3      5379            0.0000000000
     34853      5539  TIP3      H2             14.7882409960       13.8310577511      -30.0693623950  TIP3      5379            0.0000000000
     34854      5540  TIP3      OH2            16.8616394498       16.0754936807      -40.9019551151  TIP3      5380            0.0000000000
     34855      5540  TIP3      H1             16.8479783398       15.8428772172      -39.9466126891  TIP3      5380            0.0000000000
     34856      5540  TIP3      H2             15.9715423703       15.7545557797      -41.1829785861  TIP3      5380            0.0000000000
     34857      5541  TIP3      OH2            17.0697360559       19.1384441315      -27.8833175679  TIP3      5381            0.0000000000
     34858      5541  TIP3      H1             16.2058728441       18.7847830370      -28.1709740054  TIP3      5381            0.0000000000
     34859      5541  TIP3      H2             17.3054175679       19.7757047409      -28.5962857683  TIP3      5381            0.0000000000
     34860      5542  TIP3      OH2            21.0123397390       20.2784875880      -40.6325696028  TIP3      5382            0.0000000000
     34861      5542  TIP3      H1             20.9371765302       20.7976753070      -41.4421798196  TIP3      5382            0.0000000000
     34862      5542  TIP3      H2             20.3368640442       20.7245463741      -40.0838864870  TIP3      5382            0.0000000000
     34863      5543  TIP3      OH2             5.4273897594        6.9259504755      -27.7401131938  TIP3      5383            0.0000000000
     34864      5543  TIP3      H1              4.7232248156        7.1235613527      -27.0978395765  TIP3      5383            0.0000000000
     34865      5543  TIP3      H2              5.7269792997        6.0682865084      -27.3928721988  TIP3      5383            0.0000000000
     34866      5544  TIP3      OH2            17.3139151995       14.8858937078      -38.6288392782  TIP3      5384            0.0000000000
     34867      5544  TIP3      H1             17.3056951329       13.9753786182      -38.2767448046  TIP3      5384            0.0000000000
     34868      5544  TIP3      H2             18.2536728803       14.9964152859      -38.8596411792  TIP3      5384            0.0000000000
     34869      5545  TIP3      OH2             4.7183069374       18.1860390389      -30.0795148558  TIP3      5385            0.0000000000
     34870      5545  TIP3      H1              5.3566997282       17.4681649939      -29.9793652412  TIP3      5385            0.0000000000
     34871      5545  TIP3      H2              4.8059247995       18.6338887743      -29.2243676481  TIP3      5385            0.0000000000
     34872      5546  TIP3      OH2             9.6381180130       16.5249144523      -40.1964629981  TIP3      5386            0.0000000000
     34873      5546  TIP3      H1              9.6064482776       15.5748621880      -40.0357309221  TIP3      5386            0.0000000000
     34874      5546  TIP3      H2              8.9580369206       16.8473389813      -39.5766417340  TIP3      5386            0.0000000000
     34875      5547  TIP3      OH2             5.8232817467       13.6718949128      -39.2935275189  TIP3      5387            0.0000000000
     34876      5547  TIP3      H1              5.3818532551       14.2211323421      -38.6192835623  TIP3      5387            0.0000000000
     34877      5547  TIP3      H2              6.5488082764       14.2927528510      -39.5057825622  TIP3      5387            0.0000000000
     34878      5548  TIP3      OH2            14.0541022793        6.0759847349      -28.9242929639  TIP3      5388            0.0000000000
     34879      5548  TIP3      H1             14.3880770918        6.1781825977      -28.0228317699  TIP3      5388            0.0000000000
     34880      5548  TIP3      H2             13.6153366588        5.2015680771      -28.8237823915  TIP3      5388            0.0000000000
     34881      5549  TIP3      OH2            14.6774228958        5.6273842449      -38.2390774985  TIP3      5389            0.0000000000
     34882      5549  TIP3      H1             14.9768122064        6.0610668790      -39.0731241344  TIP3      5389            0.0000000000
     34883      5549  TIP3      H2             15.0334675473        6.2846167102      -37.6016311042  TIP3      5389            0.0000000000
     34884      5550  TIP3      OH2            12.3761997060       18.5670235776      -39.2216414818  TIP3      5390            0.0000000000
     34885      5550  TIP3      H1             11.7924364833       17.8143692754      -39.4200927793  TIP3      5390            0.0000000000
     34886      5550  TIP3      H2             13.0537106637       18.4332631944      -39.9189559931  TIP3      5390            0.0000000000
     34887      5551  TIP3      OH2            11.9560137600        7.2073979062      -37.0985784789  TIP3      5391            0.0000000000
     34888      5551  TIP3      H1             12.5651746972        7.9699815414      -37.1434513597  TIP3      5391            0.0000000000
     34889      5551  TIP3      H2             11.3492438802        7.4817375690      -36.4017344208  TIP3      5391            0.0000000000
     34890      5552  TIP3      OH2            12.5449354176        8.8644421562      -28.4607657154  TIP3      5392            0.0000000000
     34891      5552  TIP3      H1             11.9570464874        9.2292951118      -27.7618753059  TIP3      5392            0.0000000000
     34892      5552  TIP3      H2             13.0972889902        8.2698594550      -27.9159505166  TIP3      5392            0.0000000000
     34893      5553  TIP3      OH2            12.8613542720        4.7141497751      -36.0964704728  TIP3      5393            0.0000000000
     34894      5553  TIP3      H1             12.2086326511        5.3172604198      -36.4800490642  TIP3      5393            0.0000000000
     34895      5553  TIP3      H2             13.6399491127        5.0474741049      -36.5870174178  TIP3      5393            0.0000000000
     34896      5554  TIP3      OH2             9.7108568275       19.1951562947      -38.7110552687  TIP3      5394            0.0000000000
     34897      5554  TIP3      H1             10.4999157229       19.7584568117      -38.7462460948  TIP3      5394            0.0000000000
     34898      5554  TIP3      H2              9.3729767538       19.3370447016      -37.8010870071  TIP3      5394            0.0000000000
     34899      5555  TIP3      OH2             8.1078126936        5.9930753185      -39.6779364489  TIP3      5395            0.0000000000
     34900      5555  TIP3      H1              8.0322971824        6.8414734076      -39.2183072334  TIP3      5395            0.0000000000
     34901      5555  TIP3      H2              9.0115902867        5.7134520791      -39.4331005492  TIP3      5395            0.0000000000
     34902      5556  TIP3      OH2            18.3578706767        5.8600270306      -27.4768686011  TIP3      5396            0.0000000000
     34903      5556  TIP3      H1             17.5506622987        6.2923661683      -27.1594632306  TIP3      5396            0.0000000000
     34904      5556  TIP3      H2             18.8313768030        6.5522880019      -27.9663254171  TIP3      5396            0.0000000000
     34905      5557  TIP3      OH2            17.2649591789       10.2894386635      -33.0964766471  TIP3      5397            0.0000000000
     34906      5557  TIP3      H1             16.5826998638        9.6632311635      -33.4069435558  TIP3      5397            0.0000000000
     34907      5557  TIP3      H2             17.9021400774        9.7161831801      -32.6188309799  TIP3      5397            0.0000000000
     34908      5558  TIP3      OH2             6.5883627776       16.7650576648      -41.1660951464  TIP3      5398            0.0000000000
     34909      5558  TIP3      H1              6.4614061542       16.8089075280      -40.1913881067  TIP3      5398            0.0000000000
     34910      5558  TIP3      H2              7.0987210255       15.9261964601      -41.2379714826  TIP3      5398            0.0000000000
     34911      5559  TIP3      OH2             4.9539935611        8.8078686063      -41.7446030391  TIP3      5399            0.0000000000
     34912      5559  TIP3      H1              5.5680224340        9.5683676264      -41.7923877657  TIP3      5399            0.0000000000
     34913      5559  TIP3      H2              4.0788446279        9.2325943575      -41.7582109225  TIP3      5399            0.0000000000
     34914      5560  TIP3      OH2            18.3188083761       19.0659907808      -32.0243074158  TIP3      5400            0.0000000000
     34915      5560  TIP3      H1             18.2430197058       19.7718261683      -32.6909295679  TIP3      5400            0.0000000000
     34916      5560  TIP3      H2             19.2342323368       19.2677710791      -31.7434416962  TIP3      5400            0.0000000000
     34917      5561  TIP3      OH2             5.4800676226        3.4745897473      -32.5272593133  TIP3      5401            0.0000000000
     34918      5561  TIP3      H1              5.4345611517        3.2984693596      -33.4983261782  TIP3      5401            0.0000000000
     34919      5561  TIP3      H2              5.3238159905        2.5343965665      -32.2583059714  TIP3      5401            0.0000000000
     34920      5562  TIP3      OH2             4.3806192854       17.6726497896      -36.4337466907  TIP3      5402            0.0000000000
     34921      5562  TIP3      H1              3.8122402423       18.1960785156      -37.0320307703  TIP3      5402            0.0000000000
     34922      5562  TIP3      H2              5.0944978939       17.4337082902      -37.0581695861  TIP3      5402            0.0000000000
     34923      5563  TIP3      OH2             3.7906909379       20.3570313121      -25.5112679312  TIP3      5403            0.0000000000
     34924      5563  TIP3      H1              3.9960490361       20.2663492494      -24.5630298628  TIP3      5403            0.0000000000
     34925      5563  TIP3      H2              3.5422521894       19.4457890104      -25.7381934514  TIP3      5403            0.0000000000
     34926      5564  TIP3      OH2             8.8392358171       18.8737992414      -23.7125038587  TIP3      5404            0.0000000000
     34927      5564  TIP3      H1              9.5942045531       18.2602500288      -23.7373197357  TIP3      5404            0.0000000000
     34928      5564  TIP3      H2              8.4909568682       18.8785372807      -24.6199579165  TIP3      5404            0.0000000000
     34929      5565  TIP3      OH2            13.1412087518       18.6344622126      -41.7235736367  TIP3      5405            0.0000000000
     34930      5565  TIP3      H1             12.8304060258       17.7813786141      -42.0727123435  TIP3      5405            0.0000000000
     34931      5565  TIP3      H2             14.0763626070       18.6116564602      -41.9653409741  TIP3      5405            0.0000000000
     34932      5566  TIP3      OH2            14.9126100990       17.5735609498      -24.9933378291  TIP3      5406            0.0000000000
     34933      5566  TIP3      H1             14.5759259808       16.6595075885      -25.0101674403  TIP3      5406            0.0000000000
     34934      5566  TIP3      H2             15.8119112567       17.4711984092      -24.6235592437  TIP3      5406            0.0000000000
     34935      5567  TIP3      OH2            17.5058783818       18.2199292200      -42.2136128680  TIP3      5407            0.0000000000
     34936      5567  TIP3      H1             17.1754219379       17.5128033984      -41.6028028512  TIP3      5407            0.0000000000
     34937      5567  TIP3      H2             18.4434783336       17.9307578591      -42.2139539921  TIP3      5407            0.0000000000
     34938      5568  TIP3      OH2             3.2022588868       13.7947340674      -24.0911450516  TIP3      5408            0.0000000000
     34939      5568  TIP3      H1              3.0980376881       12.9463088533      -24.5481250526  TIP3      5408            0.0000000000
     34940      5568  TIP3      H2              3.0382529463       14.4187684228      -24.8159613825  TIP3      5408            0.0000000000
     34941      5569  TIP3      OH2             7.8389589591       14.4471506576      -41.8652316557  TIP3      5409            0.0000000000
     34942      5569  TIP3      H1              7.4335111706       13.5768677576      -41.6653860584  TIP3      5409            0.0000000000
     34943      5569  TIP3      H2              8.3714201637       14.2275115489      -42.6506229769  TIP3      5409            0.0000000000
     34944      5570  TIP3      OH2            10.4794449791       14.0976567881      -25.4378511401  TIP3      5410            0.0000000000
     34945      5570  TIP3      H1             10.0685810669       14.7450474516      -26.0526233252  TIP3      5410            0.0000000000
     34946      5570  TIP3      H2              9.7819480021       13.3979751461      -25.4406738669  TIP3      5410            0.0000000000
     34947      5571  TIP3      OH2            16.2504109935       13.8547852624      -27.4044112456  TIP3      5411            0.0000000000
     34948      5571  TIP3      H1             17.1718478118       14.1876074365      -27.4813924402  TIP3      5411            0.0000000000
     34949      5571  TIP3      H2             15.8288663471       14.7440860622      -27.3437262262  TIP3      5411            0.0000000000
     34950      5572  TIP3      OH2             5.2530024407       11.4254428974      -25.5807734931  TIP3      5412            0.0000000000
     34951      5572  TIP3      H1              6.2220759706       11.5034207085      -25.3965535241  TIP3      5412            0.0000000000
     34952      5572  TIP3      H2              4.9094110669       11.5078118169      -24.6854284782  TIP3      5412            0.0000000000
     34953      5573  TIP3      OH2             9.4829684431       12.1344179005      -39.6088401550  TIP3      5413            0.0000000000
     34954      5573  TIP3      H1              8.5710558281       11.8571062930      -39.4425835729  TIP3      5413            0.0000000000
     34955      5573  TIP3      H2              9.4493539698       12.2038976857      -40.5759147569  TIP3      5413            0.0000000000
     34956      5574  TIP3      OH2             8.2233484999       10.3055766921      -28.3019966099  TIP3      5414            0.0000000000
     34957      5574  TIP3      H1              8.0516574209       10.6862822736      -27.4051023516  TIP3      5414            0.0000000000
     34958      5574  TIP3      H2              9.1166636908       10.6419905369      -28.4608402724  TIP3      5414            0.0000000000
     34959      5575  TIP3      OH2            10.6395152124       10.8410027062      -41.8338600627  TIP3      5415            0.0000000000
     34960      5575  TIP3      H1             10.5641960961       11.3171872136      -42.6809762422  TIP3      5415            0.0000000000
     34961      5575  TIP3      H2             11.4349172392       11.2321638736      -41.4394496151  TIP3      5415            0.0000000000
     34962      5576  TIP3      OH2            13.9019794468       12.6450259140      -24.5682388489  TIP3      5416            0.0000000000
     34963      5576  TIP3      H1             14.8427552680       12.6728268216      -24.2995001664  TIP3      5416            0.0000000000
     34964      5576  TIP3      H2             13.5225864048       12.1218208354      -23.8518454910  TIP3      5416            0.0000000000
     34965      5577  TIP3      OH2            19.7884805054       13.3129857909       42.0998618276  TIP3      5417            0.0000000000
     34966      5577  TIP3      H1             19.7923220066       13.4947831042       41.1352193335  TIP3      5417            0.0000000000
     34967      5577  TIP3      H2             19.7391802870       14.1953205067       42.4949720646  TIP3      5417            0.0000000000
     34968      5578  TIP3      OH2             9.2668092346        7.4431716269      -26.8059004552  TIP3      5418            0.0000000000
     34969      5578  TIP3      H1              9.4732111877        6.6592005608      -27.3425682995  TIP3      5418            0.0000000000
     34970      5578  TIP3      H2              8.7130534368        7.9826585555      -27.3893946522  TIP3      5418            0.0000000000
     34971      5579  TIP3      OH2             9.6398876431        5.7600017617      -28.9499528451  TIP3      5419            0.0000000000
     34972      5579  TIP3      H1             10.2533187385        6.4599507354      -29.2886975083  TIP3      5419            0.0000000000
     34973      5579  TIP3      H2              8.7879355265        6.1431818112      -29.2131712954  TIP3      5419            0.0000000000
     34974      5580  TIP3      OH2            11.2406417811       11.3362629564      -29.5740248231  TIP3      5420            0.0000000000
     34975      5580  TIP3      H1             11.8264527489       11.4189724900      -28.8095421582  TIP3      5420            0.0000000000
     34976      5580  TIP3      H2             10.5734937050       11.9922998983      -29.3242213230  TIP3      5420            0.0000000000
     34977      5581  TIP3      OH2            15.6858376463        8.8788250861      -23.8348872108  TIP3      5421            0.0000000000
     34978      5581  TIP3      H1             15.9976668326        8.3614018713      -24.5803311379  TIP3      5421            0.0000000000
     34979      5581  TIP3      H2             16.0157101515        9.7695229891      -24.0367359725  TIP3      5421            0.0000000000
     34980      5582  TIP3      OH2            16.9043566831       11.8635985154      -25.8458034470  TIP3      5422            0.0000000000
     34981      5582  TIP3      H1             16.4867771269       12.6079834058      -26.3481469791  TIP3      5422            0.0000000000
     34982      5582  TIP3      H2             17.8439510112       12.0775469850      -26.0216912092  TIP3      5422            0.0000000000
     34983      5583  TIP3      OH2             7.6077350164        8.5387463988      -24.8789730050  TIP3      5423            0.0000000000
     34984      5583  TIP3      H1              6.7611344409        8.1829415934      -25.1879689399  TIP3      5423            0.0000000000
     34985      5583  TIP3      H2              8.2434631455        8.0146821931      -25.4034236420  TIP3      5423            0.0000000000
     34986      5584  TIP3      OH2            10.4371991925        3.2698606138      -28.9900845263  TIP3      5424            0.0000000000
     34987      5584  TIP3      H1             10.0468813121        4.1562468805      -28.7967654760  TIP3      5424            0.0000000000
     34988      5584  TIP3      H2              9.6408251776        2.7311728588      -29.1358593956  TIP3      5424            0.0000000000
     34989      5585  TIP3      OH2            11.3422727004        7.1193503948      -24.2843693368  TIP3      5425            0.0000000000
     34990      5585  TIP3      H1             11.0214645273        7.8799582987      -23.7545327424  TIP3      5425            0.0000000000
     34991      5585  TIP3      H2             10.8262771414        7.2427053298      -25.0926043539  TIP3      5425            0.0000000000
     34992      5586  TIP3      OH2            14.6968541827        6.2589960488      -26.0036454573  TIP3      5426            0.0000000000
     34993      5586  TIP3      H1             14.2936808089        7.0747735075      -25.6444444289  TIP3      5426            0.0000000000
     34994      5586  TIP3      H2             13.9454464018        5.6613229294      -25.8575270704  TIP3      5426            0.0000000000
     34995      5587  TIP3      OH2             5.4303565397        6.5703970074      -24.7770567808  TIP3      5427            0.0000000000
     34996      5587  TIP3      H1              5.6059690864        5.6724027061      -25.1030822168  TIP3      5427            0.0000000000
     34997      5587  TIP3      H2              5.0985662054        6.4238145580      -23.8769825400  TIP3      5427            0.0000000000
     34998      5588  TIP3      OH2             9.8623673154        2.7157188171      -26.0885554637  TIP3      5428            0.0000000000
     34999      5588  TIP3      H1             10.5263085970        2.1843494274      -25.6274648738  TIP3      5428            0.0000000000
     35000      5588  TIP3      H2             10.1763433256        2.6423674388      -27.0045510689  TIP3      5428            0.0000000000
     35001      5589  TIP3      OH2             9.9000055109       21.5293157387      -41.0713671805  TIP3      5429            0.0000000000
     35002      5589  TIP3      H1             10.7955403150       21.8026477204      -40.7853211276  TIP3      5429            0.0000000000
     35003      5589  TIP3      H2              9.9664258626       21.5690116446      -42.0511996575  TIP3      5429            0.0000000000
     35004      5590  TIP3      OH2             3.9243426026       15.8861283180      -41.1219072682  TIP3      5430            0.0000000000
     35005      5590  TIP3      H1              4.8582516121       16.1916509859      -41.1392832699  TIP3      5430            0.0000000000
     35006      5590  TIP3      H2              3.8697825563       15.4808633774      -42.0102120627  TIP3      5430            0.0000000000
     35007      5591  TIP3      OH2             2.7540672941       20.7736947638      -36.3566541793  TIP3      5431            0.0000000000
     35008      5591  TIP3      H1              2.0184967612       20.2000981775      -36.6672254627  TIP3      5431            0.0000000000
     35009      5591  TIP3      H2              2.9337852170       20.2999275963      -35.5090887170  TIP3      5431            0.0000000000
     35010      5592  TIP3      OH2             3.0782825871       19.3388779290      -34.1821207934  TIP3      5432            0.0000000000
     35011      5592  TIP3      H1              2.7074316149       18.4620341590      -33.9962929402  TIP3      5432            0.0000000000
     35012      5592  TIP3      H2              3.7457843715       19.4226699535      -33.4682655776  TIP3      5432            0.0000000000
     35013      5593  TIP3      OH2            20.9473040207       19.6639766269      -31.4299287336  TIP3      5433            0.0000000000
     35014      5593  TIP3      H1             21.2915398463       20.1032464553      -30.6324808334  TIP3      5433            0.0000000000
     35015      5593  TIP3      H2             21.2339548547       20.2747576496      -32.1274077572  TIP3      5433            0.0000000000
     35016      5594  TIP3      OH2            20.7331815547       19.5218188755      -28.2384983374  TIP3      5434            0.0000000000
     35017      5594  TIP3      H1             20.4317691218       18.8870995259      -28.9279297973  TIP3      5434            0.0000000000
     35018      5594  TIP3      H2             21.2590648455       18.9588293942      -27.6430330005  TIP3      5434            0.0000000000
     35019      5595  TIP3      OH2            19.2214125124       15.3052767145      -23.8003275241  TIP3      5435            0.0000000000
     35020      5595  TIP3      H1             18.5420473186       15.1748950568      -23.1310682744  TIP3      5435            0.0000000000
     35021      5595  TIP3      H2             19.9563971307       15.7184713292      -23.2900831345  TIP3      5435            0.0000000000
     35022      5596  TIP3      OH2            20.3912465358       13.7891980124      -38.7182890848  TIP3      5436            0.0000000000
     35023      5596  TIP3      H1             21.1715562982       14.3514892116      -38.5053974419  TIP3      5436            0.0000000000
     35024      5596  TIP3      H2             20.3559526599       13.2117876430      -37.9401172121  TIP3      5436            0.0000000000
     35025      5597  TIP3      OH2            20.4519400591       11.6318448863      -36.5010955138  TIP3      5437            0.0000000000
     35026      5597  TIP3      H1             19.7259223597       11.2911345078      -35.9347523289  TIP3      5437            0.0000000000
     35027      5597  TIP3      H2             21.1201623497       11.9063727281      -35.8489349364  TIP3      5437            0.0000000000
     35028      5598  TIP3      OH2            20.3524632503       14.9084073974      -31.6536883435  TIP3      5438            0.0000000000
     35029      5598  TIP3      H1             20.9262826531       14.5858586090      -32.3504336349  TIP3      5438            0.0000000000
     35030      5598  TIP3      H2             20.4713575255       15.8676818080      -31.7759815741  TIP3      5438            0.0000000000
     35031      5599  TIP3      OH2            18.9983842083       17.5040123540      -29.3818326770  TIP3      5439            0.0000000000
     35032      5599  TIP3      H1             18.4814981597       18.2059279996      -28.9556942423  TIP3      5439            0.0000000000
     35033      5599  TIP3      H2             18.4279353762       17.2886912664      -30.1400678725  TIP3      5439            0.0000000000
     35034      5600  TIP3      OH2            20.7000294751       11.4217725478      -40.0250407517  TIP3      5440            0.0000000000
     35035      5600  TIP3      H1             19.8890476946       11.5483306104      -40.5317465204  TIP3      5440            0.0000000000
     35036      5600  TIP3      H2             20.7067901263       12.2676177089      -39.5236982671  TIP3      5440            0.0000000000
     35037      5601  TIP3      OH2            18.5456083223        8.7563096071      -41.3686979952  TIP3      5441            0.0000000000
     35038      5601  TIP3      H1             19.0808640865        9.2919767319      -41.9786139684  TIP3      5441            0.0000000000
     35039      5601  TIP3      H2             18.7658517880        7.8541716236      -41.7059304548  TIP3      5441            0.0000000000
     35040      5602  TIP3      OH2            18.1816184937       10.6983744470      -35.6188603238  TIP3      5442            0.0000000000
     35041      5602  TIP3      H1             18.2712494832        9.7799760091      -35.9275734159  TIP3      5442            0.0000000000
     35042      5602  TIP3      H2             18.1644923636       10.5985828842      -34.6519610379  TIP3      5442            0.0000000000
     35043      5603  TIP3      OH2             3.3280539445       12.6743416788      -31.8008679122  TIP3      5443            0.0000000000
     35044      5603  TIP3      H1              3.4744434386       12.3343193405      -32.7203338337  TIP3      5443            0.0000000000
     35045      5603  TIP3      H2              4.2746160603       12.8105801979      -31.5756868285  TIP3      5443            0.0000000000
     35046      5604  TIP3      OH2            19.6492223828       12.2838327198      -26.2127017428  TIP3      5444            0.0000000000
     35047      5604  TIP3      H1             20.2669023058       11.5289683211      -26.1118477359  TIP3      5444            0.0000000000
     35048      5604  TIP3      H2             20.2437655637       13.0452316866      -26.4151515097  TIP3      5444            0.0000000000
     35049      5605  TIP3      OH2            20.8071755367        9.7413447278      -26.4872725771  TIP3      5445            0.0000000000
     35050      5605  TIP3      H1             19.9543174582        9.3788986400      -26.1881427287  TIP3      5445            0.0000000000
     35051      5605  TIP3      H2             21.4341692878        9.1610522247      -25.9879463030  TIP3      5445            0.0000000000
     35052      5606  TIP3      OH2            18.6929772963        6.3220590684      -42.5870399436  TIP3      5446            0.0000000000
     35053      5606  TIP3      H1             19.1167977515        5.7081986745      -41.9658963723  TIP3      5446            0.0000000000
     35054      5606  TIP3      H2             17.7770144454        6.0141588568      -42.6247184879  TIP3      5446            0.0000000000
     35055      5607  TIP3      OH2            17.9358412529        8.1718300349      -37.3961511335  TIP3      5447            0.0000000000
     35056      5607  TIP3      H1             18.1579900086        7.2479457234      -37.1648177522  TIP3      5447            0.0000000000
     35057      5607  TIP3      H2             18.4803513537        8.2584390663      -38.1910981951  TIP3      5447            0.0000000000
     35058      5608  TIP3      OH2            18.7420332604        8.7486283596      -31.5202149273  TIP3      5448            0.0000000000
     35059      5608  TIP3      H1             19.5713639808        8.5082188639      -31.9891737670  TIP3      5448            0.0000000000
     35060      5608  TIP3      H2             19.1657306878        9.0253210548      -30.6951885415  TIP3      5448            0.0000000000
     35061      5609  TIP3      OH2            18.9694082738        9.6789769503      -28.8771599465  TIP3      5449            0.0000000000
     35062      5609  TIP3      H1             19.0982569332        9.8528686173      -27.9238471577  TIP3      5449            0.0000000000
     35063      5609  TIP3      H2             19.6462357084       10.3118529854      -29.2392285275  TIP3      5449            0.0000000000
     35064      5610  TIP3      OH2             3.1147108558        7.7516820940      -25.9336178865  TIP3      5450            0.0000000000
     35065      5610  TIP3      H1              3.8663673017        7.4274289949      -25.3891707494  TIP3      5450            0.0000000000
     35066      5610  TIP3      H2              2.4448445111        7.0534412886      -25.7449080397  TIP3      5450            0.0000000000
     35067      5611  TIP3      OH2            21.3273711842        3.8920560425      -24.2441288609  TIP3      5451            0.0000000000
     35068      5611  TIP3      H1             22.1507698797        3.4658322092      -24.5245400746  TIP3      5451            0.0000000000
     35069      5611  TIP3      H2             21.2737726166        4.6518053894      -24.8521833542  TIP3      5451            0.0000000000
     35070      5612  TIP3      OH2            18.4926392033        5.3187727902      -37.1584914576  TIP3      5452            0.0000000000
     35071      5612  TIP3      H1             18.9493395476        4.9279744944      -36.3876175820  TIP3      5452            0.0000000000
     35072      5612  TIP3      H2             18.0741414274        4.5417500437      -37.5681858658  TIP3      5452            0.0000000000
     35073      5613  TIP3      OH2             4.5455488730        6.1403384265      -32.0971908912  TIP3      5453            0.0000000000
     35074      5613  TIP3      H1              4.7778357834        5.3645805603      -32.6536644103  TIP3      5453            0.0000000000
     35075      5613  TIP3      H2              5.1930025451        6.8100432501      -32.3959996152  TIP3      5453            0.0000000000
     35076      5614  TIP3      OH2             2.5045993021        8.8269111929      -31.9603367929  TIP3      5454            0.0000000000
     35077      5614  TIP3      H1              3.1001228874        8.2266488168      -32.4413755939  TIP3      5454            0.0000000000
     35078      5614  TIP3      H2              2.2674476811        9.4541857029      -32.6681297771  TIP3      5454            0.0000000000
     35079      5615  TIP3      OH2            20.7306062932        5.8451834968      -26.0736979214  TIP3      5455            0.0000000000
     35080      5615  TIP3      H1             20.1423840467        6.0287791568      -25.3043182413  TIP3      5455            0.0000000000
     35081      5615  TIP3      H2             20.1201642431        5.2948635153      -26.5980556059  TIP3      5455            0.0000000000
     35082      5616  TIP3      OH2            20.9964293300        5.1026681554      -40.8745625656  TIP3      5456            0.0000000000
     35083      5616  TIP3      H1             21.0855991819        4.3773777955      -41.5343138889  TIP3      5456            0.0000000000
     35084      5616  TIP3      H2             21.1823545622        5.8656182042      -41.4487049111  TIP3      5456            0.0000000000
     35085      5617  TIP3      OH2             3.0525045492        5.4125065328      -37.6594360296  TIP3      5457            0.0000000000
     35086      5617  TIP3      H1              2.1265353768        5.2987757343      -37.9203592535  TIP3      5457            0.0000000000
     35087      5617  TIP3      H2              3.3985651260        5.7565804267      -38.5058198893  TIP3      5457            0.0000000000
     35088      5618  TIP3      OH2            17.7530356780       20.1919440666      -35.6349233914  TIP3      5458            0.0000000000
     35089      5618  TIP3      H1             17.7606177045       19.6354804204      -36.4497835441  TIP3      5458            0.0000000000
     35090      5618  TIP3      H2             18.6217985111       20.6056268408      -35.6807432657  TIP3      5458            0.0000000000
     35091      5619  TIP3      OH2             2.3119265356        3.3891540151      -29.9739807824  TIP3      5459            0.0000000000
     35092      5619  TIP3      H1              1.8804799778        3.0460426114      -29.1719883278  TIP3      5459            0.0000000000
     35093      5619  TIP3      H2              1.5747353441        3.8938416868      -30.3714087945  TIP3      5459            0.0000000000
     35094      5620  TIP3      OH2             5.0655424035       17.0192421179      -24.9227196625  TIP3      5460            0.0000000000
     35095      5620  TIP3      H1              4.2110102929       17.3362817721      -25.2604812783  TIP3      5460            0.0000000000
     35096      5620  TIP3      H2              4.9092981749       16.9309142860      -23.9683963269  TIP3      5460            0.0000000000
     35097      5621  TIP3      OH2             7.9868626132       18.6492008067      -28.3896790413  TIP3      5461            0.0000000000
     35098      5621  TIP3      H1              8.0101743939       19.4843534565      -28.9226911019  TIP3      5461            0.0000000000
     35099      5621  TIP3      H2              8.9185978174       18.3795849644      -28.5637250765  TIP3      5461            0.0000000000
     35100      5622  TIP3      OH2            12.3639344259       20.0047564542      -25.9545769449  TIP3      5462            0.0000000000
     35101      5622  TIP3      H1             12.2939662971       19.0835077619      -25.7074114763  TIP3      5462            0.0000000000
     35102      5622  TIP3      H2             13.2134652307       19.9908138095      -26.4577640784  TIP3      5462            0.0000000000
     35103      5623  TIP3      OH2            14.6041025678       20.9111485707      -26.9725239696  TIP3      5463            0.0000000000
     35104      5623  TIP3      H1             15.4011408521       20.9341537964      -27.5118913332  TIP3      5463            0.0000000000
     35105      5623  TIP3      H2             14.8790437357       21.1733767587      -26.0726822388  TIP3      5463            0.0000000000
     35106      5624  TIP3      OH2            19.6336744563        3.0013383212      -27.3760945151  TIP3      5464            0.0000000000
     35107      5624  TIP3      H1             19.2993592385        3.7196060211      -27.9364343876  TIP3      5464            0.0000000000
     35108      5624  TIP3      H2             19.2204866746        2.2249978857      -27.7833324198  TIP3      5464            0.0000000000
     35109      5625  TIP3      OH2             5.3049546890       21.3332644576      -29.0436180911  TIP3      5465            0.0000000000
     35110      5625  TIP3      H1              4.5674327495       21.6234402509      -29.6099122581  TIP3      5465            0.0000000000
     35111      5625  TIP3      H2              5.1318606734       21.8417534203      -28.2350804844  TIP3      5465            0.0000000000
     35112      5626  TIP3      OH2             7.7587147819       20.6766772683      -30.0015370542  TIP3      5466            0.0000000000
     35113      5626  TIP3      H1              6.9100232108       21.0987477263      -29.7237912281  TIP3      5466            0.0000000000
     35114      5626  TIP3      H2              8.0044735571       21.2566343371      -30.7412074822  TIP3      5466            0.0000000000
     35115      5627  TIP3      OH2            12.4825303726       20.7260751719      -30.7427609997  TIP3      5467            0.0000000000
     35116      5627  TIP3      H1             12.6350035266       21.3698314203      -31.4710868559  TIP3      5467            0.0000000000
     35117      5627  TIP3      H2             12.7656861711       21.2957516378      -29.9978893257  TIP3      5467            0.0000000000
     35118      5628  TIP3      OH2            15.2631229647       21.0651498962      -30.1113446910  TIP3      5468            0.0000000000
     35119      5628  TIP3      H1             14.6485140979       20.3900810278      -29.7481719988  TIP3      5468            0.0000000000
     35120      5628  TIP3      H2             14.9152765001       21.1114190739      -31.0144288040  TIP3      5468            0.0000000000
     35121      5629  TIP3      OH2            18.1739068988       20.7230866061      -29.7327090220  TIP3      5469            0.0000000000
     35122      5629  TIP3      H1             17.6462901115       21.5391768293      -29.6795571842  TIP3      5469            0.0000000000
     35123      5629  TIP3      H2             17.7909625368       20.3088733532      -30.5300540639  TIP3      5469            0.0000000000
     35124      5630  TIP3      OH2             4.9083112457       19.7746898143      -32.1703322527  TIP3      5470            0.0000000000
     35125      5630  TIP3      H1              4.6955561644       19.2313428065      -31.3803533142  TIP3      5470            0.0000000000
     35126      5630  TIP3      H2              5.8297650711       19.4674110483      -32.3416365576  TIP3      5470            0.0000000000
     35127      5631  TIP3      OH2             7.3312739335       19.0536651214      -33.2117473969  TIP3      5471            0.0000000000
     35128      5631  TIP3      H1              7.1346441184       18.1324264977      -32.9711447302  TIP3      5471            0.0000000000
     35129      5631  TIP3      H2              8.3002415592       19.1351564161      -33.0928256700  TIP3      5471            0.0000000000
     35130      5632  TIP3      OH2            10.0730938377       19.0047455881      -32.6769220470  TIP3      5472            0.0000000000
     35131      5632  TIP3      H1              9.9116351551       18.0870975067      -32.3863594229  TIP3      5472            0.0000000000
     35132      5632  TIP3      H2             10.4847102713       19.3525278111      -31.8652898856  TIP3      5472            0.0000000000
     35133      5633  TIP3      OH2            12.1527538272        4.5842247442      -33.0128845960  TIP3      5473            0.0000000000
     35134      5633  TIP3      H1             11.8204848795        3.6615233179      -32.9460506926  TIP3      5473            0.0000000000
     35135      5633  TIP3      H2             12.8635434392        4.5194855294      -33.6683445435  TIP3      5473            0.0000000000
     35136      5634  TIP3      OH2            18.1739874451        3.0452995168      -33.1982512940  TIP3      5474            0.0000000000
     35137      5634  TIP3      H1             18.8052599039        3.4777348473      -33.8211431348  TIP3      5474            0.0000000000
     35138      5634  TIP3      H2             17.3371356150        3.0985479031      -33.7082524220  TIP3      5474            0.0000000000
     35139      5635  TIP3      OH2            19.8893903420        4.0490104925      -35.0748100014  TIP3      5475            0.0000000000
     35140      5635  TIP3      H1             20.3451125005        3.3516349256      -35.5949549150  TIP3      5475            0.0000000000
     35141      5635  TIP3      H2             20.5085503983        4.8194663794      -35.1871733221  TIP3      5475            0.0000000000
     35142      5636  TIP3      OH2             5.3320937047        2.8848893130      -35.2421525049  TIP3      5476            0.0000000000
     35143      5636  TIP3      H1              4.4549751429        2.9011077320      -35.7013455606  TIP3      5476            0.0000000000
     35144      5636  TIP3      H2              5.6914796551        2.0120221082      -35.5300269424  TIP3      5476            0.0000000000
     35145      5637  TIP3      OH2             4.3488072207        3.2173502499      -39.6495275229  TIP3      5477            0.0000000000
     35146      5637  TIP3      H1              4.6930406760        3.9102915272      -40.2676899088  TIP3      5477            0.0000000000
     35147      5637  TIP3      H2              3.6804280199        3.7113659489      -39.1533425895  TIP3      5477            0.0000000000
     35148      5638  TIP3      OH2             9.9350457260        3.0605118095      -35.6024359111  TIP3      5478            0.0000000000
     35149      5638  TIP3      H1             10.7648537004        2.6416872415      -35.8924613630  TIP3      5478            0.0000000000
     35150      5638  TIP3      H2             10.0218991505        3.0759973851      -34.6386986459  TIP3      5478            0.0000000000
     35151      5639  TIP3      OH2            15.8033195459        3.3671870810      -34.5320113621  TIP3      5479            0.0000000000
     35152      5639  TIP3      H1             15.1858909539        3.6785293634      -35.2078900713  TIP3      5479            0.0000000000
     35153      5639  TIP3      H2             15.3108542812        2.5476442204      -34.2763629153  TIP3      5479            0.0000000000
     35154      5640  TIP3      OH2            17.0225394628        3.2411752321      -38.5757606916  TIP3      5480            0.0000000000
     35155      5640  TIP3      H1             16.3236422563        3.9013162178      -38.4966976519  TIP3      5480            0.0000000000
     35156      5640  TIP3      H2             16.5403162015        2.4489105606      -38.2351712323  TIP3      5480            0.0000000000
     35157      5641  TIP3      OH2             4.0336568299       19.1283802519      -38.8421148940  TIP3      5481            0.0000000000
     35158      5641  TIP3      H1              3.2425336719       19.2968117083      -39.3936482863  TIP3      5481            0.0000000000
     35159      5641  TIP3      H2              4.4741943762       19.9777176176      -39.0325867806  TIP3      5481            0.0000000000
     35160      5642  TIP3      OH2             5.8602160237        4.7999130048      -41.1660665196  TIP3      5482            0.0000000000
     35161      5642  TIP3      H1              6.1796277776        4.4459681655      -42.0137130329  TIP3      5482            0.0000000000
     35162      5642  TIP3      H2              6.4753583265        5.5357866571      -40.9706879178  TIP3      5482            0.0000000000
     35163      5643  TIP3      OH2            10.6568434545        5.6143071095      -38.7284193286  TIP3      5483            0.0000000000
     35164      5643  TIP3      H1             10.0292576074        5.3069950559      -38.0502962008  TIP3      5483            0.0000000000
     35165      5643  TIP3      H2             11.0937674522        6.3624921730      -38.2464771237  TIP3      5483            0.0000000000
     35166      5644  TIP3      OH2            12.6619761981       21.0657497827      -40.5696796472  TIP3      5484            0.0000000000
     35167      5644  TIP3      H1             13.6335771283       21.1117287399      -40.6638005912  TIP3      5484            0.0000000000
     35168      5644  TIP3      H2             12.6424808821       20.1217399490      -40.8403349108  TIP3      5484            0.0000000000
     35169      5645  TIP3      OH2            20.3205030749       19.7632073346      -37.5535897016  TIP3      5485            0.0000000000
     35170      5645  TIP3      H1             19.7557137280       19.1601735679      -38.0742620049  TIP3      5485            0.0000000000
     35171      5645  TIP3      H2             20.0163850361       20.6174341049      -37.9336216243  TIP3      5485            0.0000000000
     35172      5646  TIP3      OH2             5.1938707241        3.9974193297      -26.1873248963  TIP3      5486            0.0000000000
     35173      5646  TIP3      H1              4.5316131156        3.2814026563      -26.0969265208  TIP3      5486            0.0000000000
     35174      5646  TIP3      H2              5.8983368632        3.6145356311      -25.6222247745  TIP3      5486            0.0000000000
     35175      5647  TIP3      OH2             7.0271877829        3.1598812937      -24.4192237665  TIP3      5487            0.0000000000
     35176      5647  TIP3      H1              7.8696593734        3.0895647381      -24.9023991260  TIP3      5487            0.0000000000
     35177      5647  TIP3      H2              6.8178786039        2.2094605599      -24.3275452297  TIP3      5487            0.0000000000
     35178      5648  TIP3      OH2             5.8859370968       20.5716269672      -41.3868129024  TIP3      5488            0.0000000000
     35179      5648  TIP3      H1              5.2557623689       21.1391071779      -40.8857285826  TIP3      5488            0.0000000000
     35180      5648  TIP3      H2              5.3933679088       19.7549135723      -41.5429750588  TIP3      5488            0.0000000000
     35181      5649  TIP3      OH2            15.7527092683        2.8948269867      -24.2437067829  TIP3      5489            0.0000000000
     35182      5649  TIP3      H1             16.0885377079        3.1242863050      -23.3667806008  TIP3      5489            0.0000000000
     35183      5649  TIP3      H2             16.5648384544        2.9348927915      -24.7926723595  TIP3      5489            0.0000000000
     35184      5650  TIP3      OH2            18.9417613838       18.6301687584      -26.0811056031  TIP3      5490            0.0000000000
     35185      5650  TIP3      H1             18.2725730472       18.5071424047      -26.7962286421  TIP3      5490            0.0000000000
     35186      5650  TIP3      H2             19.5537169894       19.2431885438      -26.5317194723  TIP3      5490            0.0000000000
     35187      5651  TIP3      OH2            33.9227483169       12.4768221419      -36.1386717074  TIP3      5491            0.0000000000
     35188      5651  TIP3      H1             34.0906635643       13.4399451190      -36.1707760836  TIP3      5491            0.0000000000
     35189      5651  TIP3      H2             33.0303492221       12.4581474381      -36.5209985436  TIP3      5491            0.0000000000
     35190      5652  TIP3      OH2            32.5724209981       11.3023544126      -32.6877757645  TIP3      5492            0.0000000000
     35191      5652  TIP3      H1             32.4330615313       11.1850813334      -31.7294534245  TIP3      5492            0.0000000000
     35192      5652  TIP3      H2             31.7851141874       10.9096886974      -33.1021058341  TIP3      5492            0.0000000000
     35193      5653  TIP3      OH2            24.8692916767       12.1532760657      -30.1917997369  TIP3      5493            0.0000000000
     35194      5653  TIP3      H1             25.3438186613       11.9003407794      -29.3740074863  TIP3      5493            0.0000000000
     35195      5653  TIP3      H2             25.4616800821       12.8209149615      -30.5683218325  TIP3      5493            0.0000000000
     35196      5654  TIP3      OH2            25.7731747232       16.2254234325      -31.8610152707  TIP3      5494            0.0000000000
     35197      5654  TIP3      H1             25.2581841310       16.1813320465      -32.6772943091  TIP3      5494            0.0000000000
     35198      5654  TIP3      H2             26.6201796766       15.8168962709      -32.1740455168  TIP3      5494            0.0000000000
     35199      5655  TIP3      OH2            21.9954449296        9.1941302730      -36.6035499685  TIP3      5495            0.0000000000
     35200      5655  TIP3      H1             21.7400983018       10.1380321567      -36.6433900369  TIP3      5495            0.0000000000
     35201      5655  TIP3      H2             21.6303341132        8.8926468406      -37.4534786801  TIP3      5495            0.0000000000
     35202      5656  TIP3      OH2            22.7813487375       11.8089495586      -34.4340598876  TIP3      5496            0.0000000000
     35203      5656  TIP3      H1             23.3007942091       11.0088750768      -34.5902117429  TIP3      5496            0.0000000000
     35204      5656  TIP3      H2             23.4955943953       12.4699475121      -34.3278232273  TIP3      5496            0.0000000000
     35205      5657  TIP3      OH2            32.6525937592       19.4787622788      -33.9729035075  TIP3      5497            0.0000000000
     35206      5657  TIP3      H1             33.4606582663       19.1464046611      -33.5646966297  TIP3      5497            0.0000000000
     35207      5657  TIP3      H2             31.9883583036       19.1389349477      -33.3449532925  TIP3      5497            0.0000000000
     35208      5658  TIP3      OH2            30.8945144015       13.7006129019      -31.3243093023  TIP3      5498            0.0000000000
     35209      5658  TIP3      H1             30.5273445822       13.4196087498      -32.1715075518  TIP3      5498            0.0000000000
     35210      5658  TIP3      H2             31.0465797114       14.6481591236      -31.5074650784  TIP3      5498            0.0000000000
     35211      5659  TIP3      OH2            32.9748890314        8.3058266093      -31.9330064030  TIP3      5499            0.0000000000
     35212      5659  TIP3      H1             33.2169603200        7.8466659667      -31.1164173702  TIP3      5499            0.0000000000
     35213      5659  TIP3      H2             33.7604008821        8.9075458875      -31.9764884161  TIP3      5499            0.0000000000
     35214      5660  TIP3      OH2            27.1067372328        6.7935320526      -34.6322995183  TIP3      5500            0.0000000000
     35215      5660  TIP3      H1             27.1307539682        7.5705241698      -35.2427398252  TIP3      5500            0.0000000000
     35216      5660  TIP3      H2             26.7093748539        6.1133837335      -35.2248767726  TIP3      5500            0.0000000000
     35217      5661  TIP3      OH2            33.9770954608        7.2211720421      -35.6669840008  TIP3      5501            0.0000000000
     35218      5661  TIP3      H1             34.5361773618        6.6933597574      -35.0657245176  TIP3      5501            0.0000000000
     35219      5661  TIP3      H2             34.3332682277        8.1058046687      -35.4485867209  TIP3      5501            0.0000000000
     35220      5662  TIP3      OH2            23.3382958197        8.8564576709      -33.6457368297  TIP3      5502            0.0000000000
     35221      5662  TIP3      H1             23.4044306822        7.9082167700      -33.3902840844  TIP3      5502            0.0000000000
     35222      5662  TIP3      H2             23.4917353689        8.7632405374      -34.6021347845  TIP3      5502            0.0000000000
     35223      5663  TIP3      OH2            28.5957548082       10.9019989479      -34.0950405650  TIP3      5503            0.0000000000
     35224      5663  TIP3      H1             29.5435906638       10.6810387231      -34.0368164032  TIP3      5503            0.0000000000
     35225      5663  TIP3      H2             28.2959456409       10.1282761319      -34.5888563475  TIP3      5503            0.0000000000
     35226      5664  TIP3      OH2            26.0267100029        5.8484390299      -30.3162001016  TIP3      5504            0.0000000000
     35227      5664  TIP3      H1             25.5202614981        6.2880404854      -31.0245844816  TIP3      5504            0.0000000000
     35228      5664  TIP3      H2             25.3451893116        5.7774568908      -29.6183773491  TIP3      5504            0.0000000000
     35229      5665  TIP3      OH2            32.8072320961       14.9997234652      -36.6974609304  TIP3      5505            0.0000000000
     35230      5665  TIP3      H1             32.6839993083       15.2163374061      -37.6439243286  TIP3      5505            0.0000000000
     35231      5665  TIP3      H2             32.4435226065       15.7951087790      -36.2613813524  TIP3      5505            0.0000000000
     35232      5666  TIP3      OH2            28.0699062724       13.1036398120      -29.6882887178  TIP3      5506            0.0000000000
     35233      5666  TIP3      H1             27.7814145137       13.9426728898      -29.2790583863  TIP3      5506            0.0000000000
     35234      5666  TIP3      H2             28.5542941334       13.4785051837      -30.4644669805  TIP3      5506            0.0000000000
     35235      5667  TIP3      OH2            25.6124013196        7.3955415396      -32.3308924732  TIP3      5507            0.0000000000
     35236      5667  TIP3      H1             26.1532758251        8.0193826206      -31.8027318815  TIP3      5507            0.0000000000
     35237      5667  TIP3      H2             25.9657471159        7.4702006014      -33.2441040143  TIP3      5507            0.0000000000
     35238      5668  TIP3      OH2            26.7531397831       15.7068823804      -29.1647568434  TIP3      5508            0.0000000000
     35239      5668  TIP3      H1             26.6372940309       15.9402557412      -30.1107780784  TIP3      5508            0.0000000000
     35240      5668  TIP3      H2             25.8312734294       15.4764344480      -28.9301254319  TIP3      5508            0.0000000000
     35241      5669  TIP3      OH2            22.7396208924       15.0096714716      -38.3471028510  TIP3      5509            0.0000000000
     35242      5669  TIP3      H1             22.7330644448       15.4718637210      -39.2082101633  TIP3      5509            0.0000000000
     35243      5669  TIP3      H2             22.8292433613       15.7639847281      -37.7135405808  TIP3      5509            0.0000000000
     35244      5670  TIP3      OH2            29.4872745203        2.9303999111      -33.2329272110  TIP3      5510            0.0000000000
     35245      5670  TIP3      H1             30.1841136133        2.4692360360      -32.7472166377  TIP3      5510            0.0000000000
     35246      5670  TIP3      H2             29.1245400360        3.4954124974      -32.5167385282  TIP3      5510            0.0000000000
     35247      5671  TIP3      OH2            34.7412495720       18.0696144267      -35.8677699667  TIP3      5511            0.0000000000
     35248      5671  TIP3      H1             34.8742822291       17.3262048143      -35.2555428828  TIP3      5511            0.0000000000
     35249      5671  TIP3      H2             35.0788227884       18.8165804536      -35.3056269036  TIP3      5511            0.0000000000
     35250      5672  TIP3      OH2            31.9058913962       12.1208929292      -38.4195719852  TIP3      5512            0.0000000000
     35251      5672  TIP3      H1             31.1226047062       12.6186102009      -38.0989659176  TIP3      5512            0.0000000000
     35252      5672  TIP3      H2             32.2941637770       12.8122868158      -38.9730164926  TIP3      5512            0.0000000000
     35253      5673  TIP3      OH2            31.4479554965        9.5879107568      -40.7259589478  TIP3      5513            0.0000000000
     35254      5673  TIP3      H1             32.1638336329        9.4226104215      -40.0924706543  TIP3      5513            0.0000000000
     35255      5673  TIP3      H2             31.8831155009       10.2645237945      -41.2813173659  TIP3      5513            0.0000000000
     35256      5674  TIP3      OH2            26.5773793513       12.1684181453      -35.4563795683  TIP3      5514            0.0000000000
     35257      5674  TIP3      H1             26.8389574502       12.1711137562      -36.3995211061  TIP3      5514            0.0000000000
     35258      5674  TIP3      H2             27.4089553780       12.0509531112      -34.9561657358  TIP3      5514            0.0000000000
     35259      5675  TIP3      OH2            28.8516764686       16.9622655818      -32.6230400691  TIP3      5515            0.0000000000
     35260      5675  TIP3      H1             28.7431945226       16.0817651567      -33.0502245165  TIP3      5515            0.0000000000
     35261      5675  TIP3      H2             29.7428555176       16.8698231546      -32.2052265387  TIP3      5515            0.0000000000
     35262      5676  TIP3      OH2            27.0692380865       11.2968472958      -31.7743914430  TIP3      5516            0.0000000000
     35263      5676  TIP3      H1             27.3350294298       11.6677635467      -32.6461152472  TIP3      5516            0.0000000000
     35264      5676  TIP3      H2             27.3555590233       12.0626131556      -31.2326495457  TIP3      5516            0.0000000000
     35265      5677  TIP3      OH2            34.1255157580       16.8523835953      -30.0264088679  TIP3      5517            0.0000000000
     35266      5677  TIP3      H1             33.4521211122       17.2624668069      -30.6205095700  TIP3      5517            0.0000000000
     35267      5677  TIP3      H2             33.8217128428       15.9284467104      -30.1620774242  TIP3      5517            0.0000000000
     35268      5678  TIP3      OH2            28.2592347410       15.9773344902      -26.8759288692  TIP3      5518            0.0000000000
     35269      5678  TIP3      H1             27.6031533060       16.6093237252      -26.5278137987  TIP3      5518            0.0000000000
     35270      5678  TIP3      H2             27.9109756370       15.8779295092      -27.7921454832  TIP3      5518            0.0000000000
     35271      5679  TIP3      OH2            34.8758390482       11.7480105564      -39.7569303401  TIP3      5519            0.0000000000
     35272      5679  TIP3      H1             34.5304028529       11.8880434840      -38.8592902941  TIP3      5519            0.0000000000
     35273      5679  TIP3      H2             34.3348167044       12.3561387864      -40.2858134841  TIP3      5519            0.0000000000
     35274      5680  TIP3      OH2            25.4500057802       11.8186259903      -27.5693982288  TIP3      5520            0.0000000000
     35275      5680  TIP3      H1             25.5321294444       12.3450385076      -26.7581004688  TIP3      5520            0.0000000000
     35276      5680  TIP3      H2             24.5149538647       11.5574877205      -27.4640022685  TIP3      5520            0.0000000000
     35277      5681  TIP3      OH2            31.5818407160       17.5667694610      -35.9203732139  TIP3      5521            0.0000000000
     35278      5681  TIP3      H1             32.3236794427       18.0600052063      -35.5143333769  TIP3      5521            0.0000000000
     35279      5681  TIP3      H2             31.1563966334       18.2691211431      -36.4298893457  TIP3      5521            0.0000000000
     35280      5682  TIP3      OH2            26.0889963162       17.6182614595      -26.1918743312  TIP3      5522            0.0000000000
     35281      5682  TIP3      H1             26.2825763232       18.2844111648      -26.8958014685  TIP3      5522            0.0000000000
     35282      5682  TIP3      H2             25.4910800077       17.0248208574      -26.6792242965  TIP3      5522            0.0000000000
     35283      5683  TIP3      OH2            26.0854043126       11.6249756549      -38.1231229194  TIP3      5523            0.0000000000
     35284      5683  TIP3      H1             25.5246255467       12.3992174262      -38.3673336831  TIP3      5523            0.0000000000
     35285      5683  TIP3      H2             25.4761990245       10.8920443153      -38.2614689555  TIP3      5523            0.0000000000
     35286      5684  TIP3      OH2            22.1551030422       14.1776090619      -28.9594650796  TIP3      5524            0.0000000000
     35287      5684  TIP3      H1             21.6634987115       14.1790508553      -29.7919688226  TIP3      5524            0.0000000000
     35288      5684  TIP3      H2             22.6944408666       13.3708954832      -29.0437252083  TIP3      5524            0.0000000000
     35289      5685  TIP3      OH2            22.3508974830       17.1524002927      -32.3412978423  TIP3      5525            0.0000000000
     35290      5685  TIP3      H1             23.2849266030       16.9294234310      -32.2530348401  TIP3      5525            0.0000000000
     35291      5685  TIP3      H2             22.2576362817       17.8512413892      -31.6711571640  TIP3      5525            0.0000000000
     35292      5686  TIP3      OH2            31.5106516491       17.0626519071      -26.6122041661  TIP3      5526            0.0000000000
     35293      5686  TIP3      H1             31.3801216927       18.0341004826      -26.5255485212  TIP3      5526            0.0000000000
     35294      5686  TIP3      H2             30.6562481424       16.8508242249      -27.0348138021  TIP3      5526            0.0000000000
     35295      5687  TIP3      OH2            31.5968889151       20.6908047339      -37.8946231686  TIP3      5527            0.0000000000
     35296      5687  TIP3      H1             31.6909845170       20.8848205778      -38.8560169057  TIP3      5527            0.0000000000
     35297      5687  TIP3      H2             31.9257125887       21.5272453955      -37.4904555147  TIP3      5527            0.0000000000
     35298      5688  TIP3      OH2            24.9253841538       20.0962939838      -35.9565472605  TIP3      5528            0.0000000000
     35299      5688  TIP3      H1             25.0341284842       19.5577440316      -35.1501093888  TIP3      5528            0.0000000000
     35300      5688  TIP3      H2             25.0150507214       19.3583923491      -36.6111332493  TIP3      5528            0.0000000000
     35301      5689  TIP3      OH2            34.7082864868       20.4443424838      -41.2183450289  TIP3      5529            0.0000000000
     35302      5689  TIP3      H1             34.5993682094       19.6145239275      -40.7260269565  TIP3      5529            0.0000000000
     35303      5689  TIP3      H2             34.4074935621       21.1083670848      -40.5450287530  TIP3      5529            0.0000000000
     35304      5690  TIP3      OH2            33.9290326460       19.2402261169      -38.2156883166  TIP3      5530            0.0000000000
     35305      5690  TIP3      H1             33.2401020549       19.8625779740      -37.9203370612  TIP3      5530            0.0000000000
     35306      5690  TIP3      H2             34.1905938082       18.7935948948      -37.3833162861  TIP3      5530            0.0000000000
     35307      5691  TIP3      OH2            24.3980447201       15.4281268556      -27.9297681473  TIP3      5531            0.0000000000
     35308      5691  TIP3      H1             24.5561893466       14.9294134573      -27.0849396481  TIP3      5531            0.0000000000
     35309      5691  TIP3      H2             23.5408424895       15.0452672915      -28.2208275498  TIP3      5531            0.0000000000
     35310      5692  TIP3      OH2            27.5366365127        4.2913128324      -32.0554413421  TIP3      5532            0.0000000000
     35311      5692  TIP3      H1             26.6528808121        4.4317770684      -32.4366019434  TIP3      5532            0.0000000000
     35312      5692  TIP3      H2             27.2452605934        3.9173862961      -31.1863826555  TIP3      5532            0.0000000000
     35313      5693  TIP3      OH2            32.0902523536        3.5952331371      -28.2363551098  TIP3      5533            0.0000000000
     35314      5693  TIP3      H1             31.9491600891        3.5186724096      -27.2655494717  TIP3      5533            0.0000000000
     35315      5693  TIP3      H2             31.1787846691        3.4882169439      -28.5845425443  TIP3      5533            0.0000000000
     35316      5694  TIP3      OH2            31.8642493395        6.2769831963      -41.4363324311  TIP3      5534            0.0000000000
     35317      5694  TIP3      H1             31.6868793784        6.1717658427      -40.4855571092  TIP3      5534            0.0000000000
     35318      5694  TIP3      H2             31.4101023850        5.5007829678      -41.7969795572  TIP3      5534            0.0000000000
     35319      5695  TIP3      OH2            27.1532452069        8.8409628162      -30.7595936577  TIP3      5535            0.0000000000
     35320      5695  TIP3      H1             26.8001093731        9.1613515458      -29.8969781122  TIP3      5535            0.0000000000
     35321      5695  TIP3      H2             27.5970976460        9.6761561390      -31.0290388507  TIP3      5535            0.0000000000
     35322      5696  TIP3      OH2            27.5628307242        9.1802121680      -35.9107346990  TIP3      5536            0.0000000000
     35323      5696  TIP3      H1             27.3058213614       10.0973322772      -36.0863848675  TIP3      5536            0.0000000000
     35324      5696  TIP3      H2             27.6862889904        8.8921360282      -36.8477832531  TIP3      5536            0.0000000000
     35325      5697  TIP3      OH2            32.6029764242        9.8514600541      -37.1751049837  TIP3      5537            0.0000000000
     35326      5697  TIP3      H1             32.3122475752       10.6488175837      -37.6678955229  TIP3      5537            0.0000000000
     35327      5697  TIP3      H2             33.1749541959        9.4832404660      -37.8705751869  TIP3      5537            0.0000000000
     35328      5698  TIP3      OH2            32.2020371377        9.9013563960      -26.3545527991  TIP3      5538            0.0000000000
     35329      5698  TIP3      H1             31.4130130942        9.7611431784      -25.7832430298  TIP3      5538            0.0000000000
     35330      5698  TIP3      H2             32.9147133698        9.6918109828      -25.7021041112  TIP3      5538            0.0000000000
     35331      5699  TIP3      OH2            33.9869142699        9.5768172834      -34.3860003130  TIP3      5539            0.0000000000
     35332      5699  TIP3      H1             33.4965997333       10.4066301048      -34.5395596224  TIP3      5539            0.0000000000
     35333      5699  TIP3      H2             33.3175366342        8.9266393855      -34.1358307065  TIP3      5539            0.0000000000
     35334      5700  TIP3      OH2            24.4405197364        8.6697994225      -29.5976757495  TIP3      5540            0.0000000000
     35335      5700  TIP3      H1             24.7683128589        9.1560035905      -28.8220956127  TIP3      5540            0.0000000000
     35336      5700  TIP3      H2             24.2840321171        7.7938256653      -29.1799207144  TIP3      5540            0.0000000000
     35337      5701  TIP3      OH2            28.2362391235        7.2997966387      -41.8116026676  TIP3      5541            0.0000000000
     35338      5701  TIP3      H1             28.1977119715        6.3421814730      -41.9685788002  TIP3      5541            0.0000000000
     35339      5701  TIP3      H2             28.1823159552        7.6349440678      -42.7117236872  TIP3      5541            0.0000000000
     35340      5702  TIP3      OH2            21.4180753511        6.3052037301      -35.0130764910  TIP3      5542            0.0000000000
     35341      5702  TIP3      H1             22.1958300512        6.2713699739      -34.4132691206  TIP3      5542            0.0000000000
     35342      5702  TIP3      H2             21.4841666703        7.2022728590      -35.3683318876  TIP3      5542            0.0000000000
     35343      5703  TIP3      OH2            23.5045392503        7.1534630452      -39.3933712284  TIP3      5543            0.0000000000
     35344      5703  TIP3      H1             23.8020645267        7.6163898407      -40.1922998179  TIP3      5543            0.0000000000
     35345      5703  TIP3      H2             22.5768404019        7.4424397667      -39.3653819603  TIP3      5543            0.0000000000
     35346      5704  TIP3      OH2            32.7493151619       10.8329702201      -29.9117057543  TIP3      5544            0.0000000000
     35347      5704  TIP3      H1             33.6601481873       10.5163468980      -30.0357474728  TIP3      5544            0.0000000000
     35348      5704  TIP3      H2             32.3909433874       10.0776185323      -29.4041592895  TIP3      5544            0.0000000000
     35349      5705  TIP3      OH2            30.2153369790        6.4730960304      -35.3378405925  TIP3      5545            0.0000000000
     35350      5705  TIP3      H1             29.3191953717        6.3220511005      -35.0102545272  TIP3      5545            0.0000000000
     35351      5705  TIP3      H2             30.7789259082        6.1620661118      -34.5837149546  TIP3      5545            0.0000000000
     35352      5706  TIP3      OH2            24.4740962109        7.8690979622      -35.9954373926  TIP3      5546            0.0000000000
     35353      5706  TIP3      H1             23.9811015520        8.5397031715      -36.5049278472  TIP3      5546            0.0000000000
     35354      5706  TIP3      H2             25.1731699833        7.6351590418      -36.6270656264  TIP3      5546            0.0000000000
     35355      5707  TIP3      OH2            27.6692627974        8.3891259455      -38.3749760314  TIP3      5547            0.0000000000
     35356      5707  TIP3      H1             28.6433638295        8.4780723184      -38.2749127621  TIP3      5547            0.0000000000
     35357      5707  TIP3      H2             27.4899998572        8.8738219091      -39.2071213222  TIP3      5547            0.0000000000
     35358      5708  TIP3      OH2            34.3572515059        5.7371507362      -32.2135210585  TIP3      5548            0.0000000000
     35359      5708  TIP3      H1             34.4184675049        6.3389121154      -31.4505977008  TIP3      5548            0.0000000000
     35360      5708  TIP3      H2             33.7552545443        5.0474322565      -31.8720918057  TIP3      5548            0.0000000000
     35361      5709  TIP3      OH2            26.9121515399        9.6406606321      -40.8180577872  TIP3      5549            0.0000000000
     35362      5709  TIP3      H1             26.4143479085        9.2233569749      -41.5337150287  TIP3      5549            0.0000000000
     35363      5709  TIP3      H2             27.7409665563        9.8523523914      -41.2912180221  TIP3      5549            0.0000000000
     35364      5710  TIP3      OH2            24.7295468214       13.9948148233      -25.7368542775  TIP3      5550            0.0000000000
     35365      5710  TIP3      H1             25.4702021366       14.2041656417      -25.1294404798  TIP3      5550            0.0000000000
     35366      5710  TIP3      H2             23.9896630834       13.8123040425      -25.1252031298  TIP3      5550            0.0000000000
     35367      5711  TIP3      OH2            30.8449851081        9.3247107890      -33.3722684799  TIP3      5551            0.0000000000
     35368      5711  TIP3      H1             31.7040540486        8.8659776313      -33.4405814384  TIP3      5551            0.0000000000
     35369      5711  TIP3      H2             30.7076763251        9.3139907484      -32.4125668654  TIP3      5551            0.0000000000
     35370      5712  TIP3      OH2            26.3902311151        5.0404969162      -36.5355537565  TIP3      5552            0.0000000000
     35371      5712  TIP3      H1             26.6221852599        4.0979914145      -36.4702157860  TIP3      5552            0.0000000000
     35372      5712  TIP3      H2             26.9569284408        5.2583932802      -37.2942996928  TIP3      5552            0.0000000000
     35373      5713  TIP3      OH2            29.6734663342        8.0489145454      -30.0041156697  TIP3      5553            0.0000000000
     35374      5713  TIP3      H1             29.4244292059        8.7469987371      -29.3619162843  TIP3      5553            0.0000000000
     35375      5713  TIP3      H2             30.6401127753        8.2014432894      -29.9268832959  TIP3      5553            0.0000000000
     35376      5714  TIP3      OH2            29.9914567460       13.9830635968      -38.3498701889  TIP3      5554            0.0000000000
     35377      5714  TIP3      H1             29.3129254845       13.6534166619      -38.9788939066  TIP3      5554            0.0000000000
     35378      5714  TIP3      H2             29.4427777792       14.1844185108      -37.5542969917  TIP3      5554            0.0000000000
     35379      5715  TIP3      OH2            34.3314578796        7.0099186042      -40.6726254787  TIP3      5555            0.0000000000
     35380      5715  TIP3      H1             33.8856901352        6.3828231273      -41.2650435617  TIP3      5555            0.0000000000
     35381      5715  TIP3      H2             33.8575988880        7.8134385724      -40.9764468862  TIP3      5555            0.0000000000
     35382      5716  TIP3      OH2            31.3398558518       14.4494419385      -27.6148050992  TIP3      5556            0.0000000000
     35383      5716  TIP3      H1             31.2290155969       13.9748974354      -26.7840791041  TIP3      5556            0.0000000000
     35384      5716  TIP3      H2             31.5866043731       15.3357058778      -27.2899339033  TIP3      5556            0.0000000000
     35385      5717  TIP3      OH2            34.0449015808        9.2438742720      -39.3538500876  TIP3      5557            0.0000000000
     35386      5717  TIP3      H1             34.8032472201        8.6304636788      -39.4255243300  TIP3      5557            0.0000000000
     35387      5717  TIP3      H2             34.4573142165       10.0638660316      -39.7173009523  TIP3      5557            0.0000000000
     35388      5718  TIP3      OH2            24.9837207036       13.2649698875      -33.4114719136  TIP3      5558            0.0000000000
     35389      5718  TIP3      H1             25.2073925448       13.3387843628      -34.3650419851  TIP3      5558            0.0000000000
     35390      5718  TIP3      H2             25.8381875013       13.6326486639      -33.0783118495  TIP3      5558            0.0000000000
     35391      5719  TIP3      OH2            32.4501392801       15.1038594322      -39.4390462409  TIP3      5559            0.0000000000
     35392      5719  TIP3      H1             32.2530788084       16.0142813203      -39.7185466367  TIP3      5559            0.0000000000
     35393      5719  TIP3      H2             31.5537798966       14.7880206198      -39.2228651157  TIP3      5559            0.0000000000
     35394      5720  TIP3      OH2            22.5947192280       11.5527846607      -27.7954970811  TIP3      5560            0.0000000000
     35395      5720  TIP3      H1             22.1007936574       10.9147956833      -27.2310905156  TIP3      5560            0.0000000000
     35396      5720  TIP3      H2             22.5166874581       11.2071881672      -28.6937891459  TIP3      5560            0.0000000000
     35397      5721  TIP3      OH2            28.6360745517       11.6041595460      -26.1019742791  TIP3      5561            0.0000000000
     35398      5721  TIP3      H1             28.8414984983       11.0662266411      -26.8802148757  TIP3      5561            0.0000000000
     35399      5721  TIP3      H2             29.1022394997       11.0790120862      -25.4037971016  TIP3      5561            0.0000000000
     35400      5722  TIP3      OH2            34.2480878737       16.6398578864      -27.3707602242  TIP3      5562            0.0000000000
     35401      5722  TIP3      H1             34.4024006727       16.5938517480      -28.3499718301  TIP3      5562            0.0000000000
     35402      5722  TIP3      H2             33.2904272489       16.8145181517      -27.3463119860  TIP3      5562            0.0000000000
     35403      5723  TIP3      OH2            27.7848798926       16.6996639247      -35.4019872505  TIP3      5563            0.0000000000
     35404      5723  TIP3      H1             28.2107989572       17.5652848580      -35.5588798313  TIP3      5563            0.0000000000
     35405      5723  TIP3      H2             27.1430011290       16.6886385579      -36.1423876263  TIP3      5563            0.0000000000
     35406      5724  TIP3      OH2            23.4515737579       11.7337420338      -41.0088870961  TIP3      5564            0.0000000000
     35407      5724  TIP3      H1             23.9471590395       12.2797587455      -40.3561028821  TIP3      5564            0.0000000000
     35408      5724  TIP3      H2             22.5242227926       11.8639172599      -40.7393331269  TIP3      5564            0.0000000000
     35409      5725  TIP3      OH2            28.6457600041       14.2469003008      -36.0015222082  TIP3      5565            0.0000000000
     35410      5725  TIP3      H1             28.4518491868       15.1856110390      -35.7726429423  TIP3      5565            0.0000000000
     35411      5725  TIP3      H2             28.6023248410       13.8810691858      -35.1048515234  TIP3      5565            0.0000000000
     35412      5726  TIP3      OH2            29.8252920365       18.6010633130      -29.2159518316  TIP3      5566            0.0000000000
     35413      5726  TIP3      H1             30.5004768073       19.2759061302      -29.0362596393  TIP3      5566            0.0000000000
     35414      5726  TIP3      H2             30.2309725091       18.1177625430      -29.9656537341  TIP3      5566            0.0000000000
     35415      5727  TIP3      OH2            28.1782125079       19.2702880319      -36.1684765902  TIP3      5567            0.0000000000
     35416      5727  TIP3      H1             27.2734837471       19.0310270427      -36.4534774030  TIP3      5567            0.0000000000
     35417      5727  TIP3      H2             28.0877478751       20.1557445334      -35.7501602003  TIP3      5567            0.0000000000
     35418      5728  TIP3      OH2            33.2228061191       14.3254108809      -29.8077379802  TIP3      5568            0.0000000000
     35419      5728  TIP3      H1             32.4491005128       14.4424418542      -29.2182451795  TIP3      5568            0.0000000000
     35420      5728  TIP3      H2             32.7764740091       13.9000230683      -30.5656366582  TIP3      5568            0.0000000000
     35421      5729  TIP3      OH2            24.1892917614        6.3710332861      -28.2458433797  TIP3      5569            0.0000000000
     35422      5729  TIP3      H1             23.7918360868        6.7035998649      -27.4256703823  TIP3      5569            0.0000000000
     35423      5729  TIP3      H2             24.2225903791        5.4217896116      -28.0518941606  TIP3      5569            0.0000000000
     35424      5730  TIP3      OH2            23.8952244428       18.0666728601      -29.9585164531  TIP3      5570            0.0000000000
     35425      5730  TIP3      H1             24.3279326567       17.2014285134      -29.8581089555  TIP3      5570            0.0000000000
     35426      5730  TIP3      H2             24.3052171599       18.5512636590      -29.2221437573  TIP3      5570            0.0000000000
     35427      5731  TIP3      OH2            28.2287078207       16.3579332232      -39.9597748304  TIP3      5571            0.0000000000
     35428      5731  TIP3      H1             28.8330257070       15.8623976229      -39.3862907566  TIP3      5571            0.0000000000
     35429      5731  TIP3      H2             28.3078561900       17.2703925618      -39.6004945172  TIP3      5571            0.0000000000
     35430      5732  TIP3      OH2            24.6401808354       13.4889139248      -39.3632900565  TIP3      5572            0.0000000000
     35431      5732  TIP3      H1             24.0908562383       14.0511500498      -38.7597889894  TIP3      5572            0.0000000000
     35432      5732  TIP3      H2             25.1466930930       14.1785046441      -39.8284371767  TIP3      5572            0.0000000000
     35433      5733  TIP3      OH2            33.1844680134        5.8622737248      -29.4761096875  TIP3      5573            0.0000000000
     35434      5733  TIP3      H1             33.4555303322        6.1804291326      -28.5989505173  TIP3      5573            0.0000000000
     35435      5733  TIP3      H2             32.7604955857        5.0173090830      -29.1833205786  TIP3      5573            0.0000000000
     35436      5734  TIP3      OH2            33.0729432573        6.4433395201      -38.2686040622  TIP3      5574            0.0000000000
     35437      5734  TIP3      H1             33.4405868797        6.7964178518      -39.0958838080  TIP3      5574            0.0000000000
     35438      5734  TIP3      H2             33.4235971465        7.0652614471      -37.5957160286  TIP3      5574            0.0000000000
     35439      5735  TIP3      OH2            31.2353472753       17.7851606362      -39.5460427602  TIP3      5575            0.0000000000
     35440      5735  TIP3      H1             30.6547319002       18.4872001286      -39.1871160926  TIP3      5575            0.0000000000
     35441      5735  TIP3      H2             31.9200900654       18.2861031408      -40.0401991524  TIP3      5575            0.0000000000
     35442      5736  TIP3      OH2            30.4016625921        7.9362656147      -37.5865589971  TIP3      5576            0.0000000000
     35443      5736  TIP3      H1             31.2264152236        8.3455728564      -37.2743726343  TIP3      5576            0.0000000000
     35444      5736  TIP3      H2             30.2692568768        7.2988901792      -36.8516990001  TIP3      5576            0.0000000000
     35445      5737  TIP3      OH2            32.0014829589        8.5834409614      -28.7197887263  TIP3      5577            0.0000000000
     35446      5737  TIP3      H1             32.1326773361        9.0981731973      -27.8807320915  TIP3      5577            0.0000000000
     35447      5737  TIP3      H2             32.1912214035        7.6725435029      -28.4340160980  TIP3      5577            0.0000000000
     35448      5738  TIP3      OH2            31.6010368822        4.8299166691      -36.8665299146  TIP3      5578            0.0000000000
     35449      5738  TIP3      H1             31.2553366316        5.4120774365      -36.1636311733  TIP3      5578            0.0000000000
     35450      5738  TIP3      H2             32.2108045899        5.4437812175      -37.3295049097  TIP3      5578            0.0000000000
     35451      5739  TIP3      OH2            28.9050139474       19.0338821898      -38.8172141158  TIP3      5579            0.0000000000
     35452      5739  TIP3      H1             28.6771255237       19.9086841019      -39.1828546174  TIP3      5579            0.0000000000
     35453      5739  TIP3      H2             28.7979468062       19.1529078963      -37.8474853167  TIP3      5579            0.0000000000
     35454      5740  TIP3      OH2            26.7437111427        5.7446632494      -39.3448953344  TIP3      5580            0.0000000000
     35455      5740  TIP3      H1             26.9107607043        6.6865036172      -39.1588679150  TIP3      5580            0.0000000000
     35456      5740  TIP3      H2             27.6975069925        5.4839691420      -39.3618560882  TIP3      5580            0.0000000000
     35457      5741  TIP3      OH2            25.6180371856       16.2134858341      -40.9076679547  TIP3      5581            0.0000000000
     35458      5741  TIP3      H1             26.1783335936       16.5728486948      -40.1863348283  TIP3      5581            0.0000000000
     35459      5741  TIP3      H2             26.3048905294       15.6792410688      -41.3562237066  TIP3      5581            0.0000000000
     35460      5742  TIP3      OH2            23.8902955512        9.0424093444      -41.5825423781  TIP3      5582            0.0000000000
     35461      5742  TIP3      H1             23.9878195999        9.9377554571      -41.1900644675  TIP3      5582            0.0000000000
     35462      5742  TIP3      H2             22.9877416813        9.1099586086      -41.9268550220  TIP3      5582            0.0000000000
     35463      5743  TIP3      OH2            25.1948848669        3.0281495923      -33.2735564742  TIP3      5583            0.0000000000
     35464      5743  TIP3      H1             24.6091987472        3.3600389237      -33.9956948452  TIP3      5583            0.0000000000
     35465      5743  TIP3      H2             24.5616201020        2.5192759146      -32.7379677597  TIP3      5583            0.0000000000
     35466      5744  TIP3      OH2            22.4853287617       17.2462919728      -36.7471222558  TIP3      5584            0.0000000000
     35467      5744  TIP3      H1             21.8843960032       17.7925307333      -37.2878723226  TIP3      5584            0.0000000000
     35468      5744  TIP3      H2             23.3774362745       17.5939716534      -36.9600062791  TIP3      5584            0.0000000000
     35469      5745  TIP3      OH2            22.5651984817       20.0988481225      -25.6816563213  TIP3      5585            0.0000000000
     35470      5745  TIP3      H1             23.1036913889       19.9781356031      -24.8710324162  TIP3      5585            0.0000000000
     35471      5745  TIP3      H2             22.2207519702       19.1933644105      -25.8310051183  TIP3      5585            0.0000000000
     35472      5746  TIP3      OH2            26.8498145826       19.5968289465      -24.2327737605  TIP3      5586            0.0000000000
     35473      5746  TIP3      H1             27.7823868908       19.7000430296      -23.9225655331  TIP3      5586            0.0000000000
     35474      5746  TIP3      H2             26.9886335144       19.1060062322      -25.0645159882  TIP3      5586            0.0000000000
     35475      5747  TIP3      OH2            32.6389419281       18.7141296462      -41.5445634155  TIP3      5587            0.0000000000
     35476      5747  TIP3      H1             31.8724218876       18.2115405593      -41.8611530497  TIP3      5587            0.0000000000
     35477      5747  TIP3      H2             32.7497112200       19.2586543912      -42.3477838172  TIP3      5587            0.0000000000
     35478      5748  TIP3      OH2            33.9179117533       17.8663884978      -24.8047692687  TIP3      5588            0.0000000000
     35479      5748  TIP3      H1             33.1504756334       17.3058888488      -25.0139516498  TIP3      5588            0.0000000000
     35480      5748  TIP3      H2             34.5711837424       17.3994478497      -25.3402559127  TIP3      5588            0.0000000000
     35481      5749  TIP3      OH2            22.1336600664       13.8996925401      -24.2688864992  TIP3      5589            0.0000000000
     35482      5749  TIP3      H1             21.8780153340       12.9722932064      -24.4143783766  TIP3      5589            0.0000000000
     35483      5749  TIP3      H2             21.7085509932       14.3636789214      -25.0286715904  TIP3      5589            0.0000000000
     35484      5750  TIP3      OH2            27.1570467061       14.1466867242      -42.1001430486  TIP3      5590            0.0000000000
     35485      5750  TIP3      H1             27.8830796714       14.1594808509      -41.4402229716  TIP3      5590            0.0000000000
     35486      5750  TIP3      H2             27.6317271431       13.9651564306      -42.9377988142  TIP3      5590            0.0000000000
     35487      5751  TIP3      OH2            29.2089594997       14.1741669386      -25.2048155047  TIP3      5591            0.0000000000
     35488      5751  TIP3      H1             29.0488069568       14.6866753798      -26.0337197253  TIP3      5591            0.0000000000
     35489      5751  TIP3      H2             29.0080220386       13.2555468124      -25.4998059794  TIP3      5591            0.0000000000
     35490      5752  TIP3      OH2            22.6572532839       10.9716647568      -24.5551967459  TIP3      5592            0.0000000000
     35491      5752  TIP3      H1             23.1298192714       10.1345209284      -24.6479583256  TIP3      5592            0.0000000000
     35492      5752  TIP3      H2             23.2969899231       11.5267416225      -24.0844904276  TIP3      5592            0.0000000000
     35493      5753  TIP3      OH2            28.3013988585       12.7997469299      -40.0961065549  TIP3      5593            0.0000000000
     35494      5753  TIP3      H1             27.7242042834       12.1730905596      -39.6284640154  TIP3      5593            0.0000000000
     35495      5753  TIP3      H2             28.6942065352       12.1779992477      -40.7368915421  TIP3      5593            0.0000000000
     35496      5754  TIP3      OH2            27.2585460362       10.0459569392      -28.3128946601  TIP3      5594            0.0000000000
     35497      5754  TIP3      H1             26.8939218396       10.5439917878      -27.5539582890  TIP3      5594            0.0000000000
     35498      5754  TIP3      H2             27.8940713949       10.7017414899      -28.6606870343  TIP3      5594            0.0000000000
     35499      5755  TIP3      OH2            29.2174501324       10.7540036682      -42.0248061578  TIP3      5595            0.0000000000
     35500      5755  TIP3      H1             29.7373202398       10.9908318021      -42.8068451776  TIP3      5595            0.0000000000
     35501      5755  TIP3      H2             29.9672270673       10.5488243649      -41.4192554945  TIP3      5595            0.0000000000
     35502      5756  TIP3      OH2            32.4868553972       12.1999140305      -24.2651276604  TIP3      5596            0.0000000000
     35503      5756  TIP3      H1             33.2884714029       12.1443938828      -24.8024957525  TIP3      5596            0.0000000000
     35504      5756  TIP3      H2             32.1994989556       11.2663447230      -24.2895095539  TIP3      5596            0.0000000000
     35505      5757  TIP3      OH2            28.2723196541        7.8113800694      -26.8531732360  TIP3      5597            0.0000000000
     35506      5757  TIP3      H1             28.2043467575        7.0115533442      -27.4220029947  TIP3      5597            0.0000000000
     35507      5757  TIP3      H2             28.1463968858        8.5453199677      -27.4791251201  TIP3      5597            0.0000000000
     35508      5758  TIP3      OH2            28.2836689476        6.1227312905      -28.8726585744  TIP3      5598            0.0000000000
     35509      5758  TIP3      H1             28.8717949607        6.7428785234      -29.3511411933  TIP3      5598            0.0000000000
     35510      5758  TIP3      H2             27.4756811155        6.0366785200      -29.4344748532  TIP3      5598            0.0000000000
     35511      5759  TIP3      OH2            29.9948344030       10.7029472528      -29.2614164211  TIP3      5599            0.0000000000
     35512      5759  TIP3      H1             30.9479078750       10.7420666816      -29.4508497581  TIP3      5599            0.0000000000
     35513      5759  TIP3      H2             29.8346851037       11.6552995719      -29.2012151213  TIP3      5599            0.0000000000
     35514      5760  TIP3      OH2            34.2364906556        9.5303637464      -24.6587442689  TIP3      5600            0.0000000000
     35515      5760  TIP3      H1             34.5097413550        8.5933311019      -24.7582776184  TIP3      5600            0.0000000000
     35516      5760  TIP3      H2             35.0542881815        9.9677340377      -24.9204894501  TIP3      5600            0.0000000000
     35517      5761  TIP3      OH2            26.5296481468        8.6662402303      -24.8088944073  TIP3      5601            0.0000000000
     35518      5761  TIP3      H1             25.7563338260        8.0716813914      -24.7272696298  TIP3      5601            0.0000000000
     35519      5761  TIP3      H2             27.1041705578        8.2289036722      -25.4811094502  TIP3      5601            0.0000000000
     35520      5762  TIP3      OH2            29.2822731334        3.3169067941      -29.0850054692  TIP3      5602            0.0000000000
     35521      5762  TIP3      H1             28.9125879603        4.1973069762      -28.9167595920  TIP3      5602            0.0000000000
     35522      5762  TIP3      H2             28.6952525972        2.7867330498      -28.5084425609  TIP3      5602            0.0000000000
     35523      5763  TIP3      OH2            30.3579085754        6.6263550403      -24.9130740162  TIP3      5603            0.0000000000
     35524      5763  TIP3      H1             30.2179080473        7.5403773214      -24.5782312720  TIP3      5603            0.0000000000
     35525      5763  TIP3      H2             29.8538465525        6.7100716033      -25.7384034249  TIP3      5603            0.0000000000
     35526      5764  TIP3      OH2            32.7758012439        6.7739412564      -26.1311753012  TIP3      5604            0.0000000000
     35527      5764  TIP3      H1             31.8704350133        6.8003875343      -25.7687723951  TIP3      5604            0.0000000000
     35528      5764  TIP3      H2             33.2346840927        6.3000262781      -25.4082806361  TIP3      5604            0.0000000000
     35529      5765  TIP3      OH2            34.6992736240        5.4119240296      -24.4009620118  TIP3      5605            0.0000000000
     35530      5765  TIP3      H1             34.7565043476        4.4738642578      -24.2140626804  TIP3      5605            0.0000000000
     35531      5765  TIP3      H2             34.5323065604        5.7788342715      -23.5006287873  TIP3      5605            0.0000000000
     35532      5766  TIP3      OH2            24.5201024968        6.5226198736      -24.5531004593  TIP3      5606            0.0000000000
     35533      5766  TIP3      H1             24.6672863774        5.7698069005      -25.1540268078  TIP3      5606            0.0000000000
     35534      5766  TIP3      H2             24.3317560419        6.0858933464      -23.7088275760  TIP3      5606            0.0000000000
     35535      5767  TIP3      OH2            28.4949979800        3.0584763411      -25.6723140304  TIP3      5607            0.0000000000
     35536      5767  TIP3      H1             29.4261887050        2.7655371507      -25.6565453968  TIP3      5607            0.0000000000
     35537      5767  TIP3      H2             28.0872538806        2.4825072455      -26.3505210064  TIP3      5607            0.0000000000
     35538      5768  TIP3      OH2            29.3976566476        4.4208012007      -23.1858890018  TIP3      5608            0.0000000000
     35539      5768  TIP3      H1             30.0551254708        4.1844932109      -23.8749275157  TIP3      5608            0.0000000000
     35540      5768  TIP3      H2             29.0138932115        5.2004184512      -23.6415300601  TIP3      5608            0.0000000000
     35541      5769  TIP3      OH2            28.8757341145       21.2734373795      -40.7356734359  TIP3      5609            0.0000000000
     35542      5769  TIP3      H1             29.8041702711       21.2730701775      -40.4255640563  TIP3      5609            0.0000000000
     35543      5769  TIP3      H2             29.0668752677       21.7834910532      -41.5411016283  TIP3      5609            0.0000000000
     35544      5770  TIP3      OH2            22.8307147999       15.7948724319      -41.3192534239  TIP3      5610            0.0000000000
     35545      5770  TIP3      H1             23.7915624422       15.8944846671      -41.1270498393  TIP3      5610            0.0000000000
     35546      5770  TIP3      H2             22.8715123928       15.7950335701      -42.2885990444  TIP3      5610            0.0000000000
     35547      5771  TIP3      OH2            21.7342346967       21.2241231998      -35.8385292323  TIP3      5611            0.0000000000
     35548      5771  TIP3      H1             21.3296901936       20.6440145229      -36.5281586749  TIP3      5611            0.0000000000
     35549      5771  TIP3      H2             22.0034805605       20.5082458112      -35.2114798148  TIP3      5611            0.0000000000
     35550      5772  TIP3      OH2            22.5070719205       19.2768254379      -34.2068951608  TIP3      5612            0.0000000000
     35551      5772  TIP3      H1             22.0971126965       18.3909115581      -34.1121200531  TIP3      5612            0.0000000000
     35552      5772  TIP3      H2             22.9875125659       19.3805624971      -33.3672332696  TIP3      5612            0.0000000000
     35553      5773  TIP3      OH2            22.4914269065       12.4960158346      -31.6996224295  TIP3      5613            0.0000000000
     35554      5773  TIP3      H1             22.4122655650       12.3224955554      -32.6571840768  TIP3      5613            0.0000000000
     35555      5773  TIP3      H2             23.3262894499       13.0102829696      -31.6563163651  TIP3      5613            0.0000000000
     35556      5774  TIP3      OH2            22.4867977794        7.8838528340      -25.5222770110  TIP3      5614            0.0000000000
     35557      5774  TIP3      H1             23.2680508846        7.4717046184      -25.0883900453  TIP3      5614            0.0000000000
     35558      5774  TIP3      H2             21.9570613764        7.0984427387      -25.7553213003  TIP3      5614            0.0000000000
     35559      5775  TIP3      OH2            23.2178130220        6.2867698496      -33.0099084235  TIP3      5615            0.0000000000
     35560      5775  TIP3      H1             22.9070071636        5.4491949757      -32.6440557369  TIP3      5615            0.0000000000
     35561      5775  TIP3      H2             24.0706686496        6.4454734179      -32.5541850551  TIP3      5615            0.0000000000
     35562      5776  TIP3      OH2            21.3641615871        8.9886751008      -31.8651971018  TIP3      5616            0.0000000000
     35563      5776  TIP3      H1             22.0332693938        8.8617052708      -32.5745092775  TIP3      5616            0.0000000000
     35564      5776  TIP3      H2             21.4423713064        9.9440673558      -31.7392146639  TIP3      5616            0.0000000000
     35565      5777  TIP3      OH2            21.1078247457        5.2238224231      -37.9858616752  TIP3      5617            0.0000000000
     35566      5777  TIP3      H1             20.1395609446        5.2949372999      -37.8879618955  TIP3      5617            0.0000000000
     35567      5777  TIP3      H2             21.2078878081        5.2628652686      -38.9582969642  TIP3      5617            0.0000000000
     35568      5778  TIP3      OH2            21.9458876772        4.8432177891      -29.3996614338  TIP3      5618            0.0000000000
     35569      5778  TIP3      H1             22.0559165540        5.4655752224      -28.6654959516  TIP3      5618            0.0000000000
     35570      5778  TIP3      H2             21.5521194137        5.4046262961      -30.0879529542  TIP3      5618            0.0000000000
     35571      5779  TIP3      OH2            23.1804965385       16.9275517008      -24.4212926265  TIP3      5619            0.0000000000
     35572      5779  TIP3      H1             22.6798662672       17.1339727429      -25.2362840733  TIP3      5619            0.0000000000
     35573      5779  TIP3      H2             22.4550990121       16.6046328794      -23.8582261541  TIP3      5619            0.0000000000
     35574      5780  TIP3      OH2            26.9769142264       18.8263407840      -28.5684259572  TIP3      5620            0.0000000000
     35575      5780  TIP3      H1             27.0351919319       19.6411744852      -29.1153223151  TIP3      5620            0.0000000000
     35576      5780  TIP3      H2             27.8142253282       18.4068534002      -28.8612171369  TIP3      5620            0.0000000000
     35577      5781  TIP3      OH2            31.0738979153       19.8708513585      -26.3789402875  TIP3      5621            0.0000000000
     35578      5781  TIP3      H1             30.7815789629       19.8165519312      -25.4454008197  TIP3      5621            0.0000000000
     35579      5781  TIP3      H2             32.0449048607       19.8673630179      -26.2795899056  TIP3      5621            0.0000000000
     35580      5782  TIP3      OH2            33.8222832894       20.3184731295      -26.4961265542  TIP3      5622            0.0000000000
     35581      5782  TIP3      H1             33.7900794487       20.0346938548      -27.4473721717  TIP3      5622            0.0000000000
     35582      5782  TIP3      H2             34.2688685923       21.1789534928      -26.5835513729  TIP3      5622            0.0000000000
     35583      5783  TIP3      OH2            24.4650752312       21.2956401708      -29.1802244975  TIP3      5623            0.0000000000
     35584      5783  TIP3      H1             23.5863403994       21.7061557773      -29.3490716965  TIP3      5623            0.0000000000
     35585      5783  TIP3      H2             24.5194784965       21.2504261280      -28.2202079121  TIP3      5623            0.0000000000
     35586      5784  TIP3      OH2            26.7740034367       20.7764916747      -30.4920052159  TIP3      5624            0.0000000000
     35587      5784  TIP3      H1             25.8128933230       20.9327101871      -30.3423866422  TIP3      5624            0.0000000000
     35588      5784  TIP3      H2             26.9799206098       21.5154710478      -31.1104309889  TIP3      5624            0.0000000000
     35589      5785  TIP3      OH2            32.1606691238       20.7770012538      -31.0168811173  TIP3      5625            0.0000000000
     35590      5785  TIP3      H1             32.2850745512       21.4865737379      -31.6709136967  TIP3      5625            0.0000000000
     35591      5785  TIP3      H2             31.7782753352       21.2605325682      -30.2595681243  TIP3      5625            0.0000000000
     35592      5786  TIP3      OH2            33.7989935415       19.8714152351      -29.1083936352  TIP3      5626            0.0000000000
     35593      5786  TIP3      H1             33.0811907903       19.9052994015      -29.7719484164  TIP3      5626            0.0000000000
     35594      5786  TIP3      H2             34.4099848950       20.4550597149      -29.5999695732  TIP3      5626            0.0000000000
     35595      5787  TIP3      OH2            24.0433437235       20.0137719160      -31.8848018908  TIP3      5627            0.0000000000
     35596      5787  TIP3      H1             23.9695760914       19.4664507248      -31.0648380891  TIP3      5627            0.0000000000
     35597      5787  TIP3      H2             24.9225823344       19.7305918646      -32.2420408409  TIP3      5627            0.0000000000
     35598      5788  TIP3      OH2            26.2910989751       19.0730410014      -33.2601083959  TIP3      5628            0.0000000000
     35599      5788  TIP3      H1             26.3710857600       18.1337661344      -33.0316431671  TIP3      5628            0.0000000000
     35600      5788  TIP3      H2             27.2218628727       19.3616149180      -33.1342860729  TIP3      5628            0.0000000000
     35601      5789  TIP3      OH2            28.9464105482       19.6163494292      -32.8000802375  TIP3      5629            0.0000000000
     35602      5789  TIP3      H1             28.9800758055       18.6887824032      -33.1324711806  TIP3      5629            0.0000000000
     35603      5789  TIP3      H2             29.2344006618       19.4457903724      -31.8892524336  TIP3      5629            0.0000000000
     35604      5790  TIP3      OH2            31.3633773329        5.0985857259      -33.3363584624  TIP3      5630            0.0000000000
     35605      5790  TIP3      H1             31.8016606844        5.1613198688      -32.4734561098  TIP3      5630            0.0000000000
     35606      5790  TIP3      H2             31.9370358361        4.4105499974      -33.7061602090  TIP3      5630            0.0000000000
     35607      5791  TIP3      OH2            23.8109408541        3.2285573628      -35.6695706755  TIP3      5631            0.0000000000
     35608      5791  TIP3      H1             23.0287495543        2.9169572403      -36.1704974951  TIP3      5631            0.0000000000
     35609      5791  TIP3      H2             24.3995478698        2.4421112233      -35.7207324030  TIP3      5631            0.0000000000
     35610      5792  TIP3      OH2            23.2696174043        3.2741649054      -39.6145253506  TIP3      5632            0.0000000000
     35611      5792  TIP3      H1             23.4269886168        3.9450991252      -40.3045907867  TIP3      5632            0.0000000000
     35612      5792  TIP3      H2             22.2966721894        3.2232211340      -39.5664027379  TIP3      5632            0.0000000000
     35613      5793  TIP3      OH2            28.4852695819        3.3444349603      -35.6373472942  TIP3      5633            0.0000000000
     35614      5793  TIP3      H1             29.2742527045        3.2747895652      -36.2020752398  TIP3      5633            0.0000000000
     35615      5793  TIP3      H2             28.9259188832        3.3898009196      -34.7550123523  TIP3      5633            0.0000000000
     35616      5794  TIP3      OH2            34.3756345713        3.0884330536      -34.5403709640  TIP3      5634            0.0000000000
     35617      5794  TIP3      H1             34.0390670053        3.1550912483      -35.4536271950  TIP3      5634            0.0000000000
     35618      5794  TIP3      H2             33.6242626344        2.6426890661      -34.1017029946  TIP3      5634            0.0000000000
     35619      5795  TIP3      OH2            23.0393623249       19.4686837642      -39.0143982499  TIP3      5635            0.0000000000
     35620      5795  TIP3      H1             22.5841105076       18.6917618784      -39.3544266260  TIP3      5635            0.0000000000
     35621      5795  TIP3      H2             22.3926636782       20.1466228350      -39.3080042973  TIP3      5635            0.0000000000
     35622      5796  TIP3      OH2            24.8730506986        4.6521556254      -41.3988261707  TIP3      5636            0.0000000000
     35623      5796  TIP3      H1             25.2119646704        3.7469599271      -41.6079458174  TIP3      5636            0.0000000000
     35624      5796  TIP3      H2             25.5472345616        4.9014250857      -40.7369670637  TIP3      5636            0.0000000000
     35625      5797  TIP3      OH2            29.3117821569        5.7304169138      -38.8903186100  TIP3      5637            0.0000000000
     35626      5797  TIP3      H1             29.9160620969        5.1721370598      -38.3817221311  TIP3      5637            0.0000000000
     35627      5797  TIP3      H2             29.7169316679        6.6104994508      -38.7173464606  TIP3      5637            0.0000000000
     35628      5798  TIP3      OH2            31.6426973648       21.1895193234      -40.6774482463  TIP3      5638            0.0000000000
     35629      5798  TIP3      H1             32.2179189221       21.9591677428      -40.5098751063  TIP3      5638            0.0000000000
     35630      5798  TIP3      H2             32.2781667104       20.5289631556      -41.0169976056  TIP3      5638            0.0000000000
     35631      5799  TIP3      OH2            24.0698979075        3.5888821229      -25.9440950884  TIP3      5639            0.0000000000
     35632      5799  TIP3      H1             23.9434052861        2.6224971151      -26.0025351548  TIP3      5639            0.0000000000
     35633      5799  TIP3      H2             24.9438559260        3.6110476839      -25.5203778203  TIP3      5639            0.0000000000
     35634      5800  TIP3      OH2            26.1940908901        3.4410085088      -23.9297918257  TIP3      5640            0.0000000000
     35635      5800  TIP3      H1             26.9987088709        3.6460987462      -24.4630962762  TIP3      5640            0.0000000000
     35636      5800  TIP3      H2             26.3938356644        2.5142111155      -23.7568326729  TIP3      5640            0.0000000000
     35637      5801  TIP3      OH2            25.0700835478       20.5820674409      -40.5768075765  TIP3      5641            0.0000000000
     35638      5801  TIP3      H1             24.3323369314       20.0157203712      -40.2487704467  TIP3      5641            0.0000000000
     35639      5801  TIP3      H2             25.3529083712       20.1755307610      -41.4070147794  TIP3      5641            0.0000000000
     35640      5802  TIP3      OH2           -22.7658282948       31.7989307217      -35.4595846444  TIP3      5642            0.0000000000
     35641      5802  TIP3      H1            -22.8805994111       32.7638245827      -35.6100992611  TIP3      5642            0.0000000000
     35642      5802  TIP3      H2            -23.6259616600       31.4949613819      -35.7853993765  TIP3      5642            0.0000000000
     35643      5803  TIP3      OH2           -24.2028680498       30.3390745741      -32.1058043543  TIP3      5643            0.0000000000
     35644      5803  TIP3      H1            -24.3956035996       29.3922360615      -31.9869172683  TIP3      5643            0.0000000000
     35645      5803  TIP3      H2            -25.0509347638       30.6199464938      -32.4916999280  TIP3      5643            0.0000000000
     35646      5804  TIP3      OH2           -31.7935645286       30.4902227639      -31.0541963761  TIP3      5644            0.0000000000
     35647      5804  TIP3      H1            -31.5093038441       29.5719406386      -30.9242325195  TIP3      5644            0.0000000000
     35648      5804  TIP3      H2            -31.4459293486       30.9173110104      -30.2329931913  TIP3      5644            0.0000000000
     35649      5805  TIP3      OH2           -20.8083484406       33.6333483431      -33.5651991320  TIP3      5645            0.0000000000
     35650      5805  TIP3      H1            -20.9338695513       32.7467183047      -33.1721508282  TIP3      5645            0.0000000000
     35651      5805  TIP3      H2            -19.8546390435       33.7259983545      -33.4815956003  TIP3      5645            0.0000000000
     35652      5806  TIP3      OH2           -31.2736961393       34.1151130849      -31.7201801291  TIP3      5646            0.0000000000
     35653      5806  TIP3      H1            -31.4160148356       33.2455329399      -32.1528243371  TIP3      5646            0.0000000000
     35654      5806  TIP3      H2            -30.3369841167       34.2853924754      -31.9788930670  TIP3      5646            0.0000000000
     35655      5807  TIP3      OH2           -34.0000936421       29.2394994303      -36.5633217927  TIP3      5647            0.0000000000
     35656      5807  TIP3      H1            -33.8925995185       29.3586892284      -35.6048018237  TIP3      5647            0.0000000000
     35657      5807  TIP3      H2            -34.9131624626       28.9073572919      -36.5391589118  TIP3      5647            0.0000000000
     35658      5808  TIP3      OH2           -33.3614685681       30.3949985579      -34.0838547540  TIP3      5648            0.0000000000
     35659      5808  TIP3      H1            -32.7442530483       29.6301408839      -33.9776429598  TIP3      5648            0.0000000000
     35660      5808  TIP3      H2            -33.0050503747       30.8674999603      -34.8489195918  TIP3      5648            0.0000000000
     35661      5809  TIP3      OH2           -25.8839117539       32.5463316255      -31.1397793653  TIP3      5649            0.0000000000
     35662      5809  TIP3      H1            -26.0225184445       32.5632749365      -32.1127045441  TIP3      5649            0.0000000000
     35663      5809  TIP3      H2            -25.2344670503       33.2669299688      -31.0119399007  TIP3      5649            0.0000000000
     35664      5810  TIP3      OH2           -17.3792895152       24.9991456377      -31.4362861951  TIP3      5650            0.0000000000
     35665      5810  TIP3      H1            -17.4108834556       25.3007796500      -30.4954831553  TIP3      5650            0.0000000000
     35666      5810  TIP3      H2            -16.4751271086       25.2759694334      -31.6916892614  TIP3      5650            0.0000000000
     35667      5811  TIP3      OH2           -22.4922225929       27.4614085382      -31.2587591533  TIP3      5651            0.0000000000
     35668      5811  TIP3      H1            -22.4656645038       26.4854603917      -31.3343006040  TIP3      5651            0.0000000000
     35669      5811  TIP3      H2            -22.4955562721       27.6915776385      -32.2112208719  TIP3      5651            0.0000000000
     35670      5812  TIP3      OH2           -29.4468999153       25.2588115883      -34.4047425934  TIP3      5652            0.0000000000
     35671      5812  TIP3      H1            -29.7668584898       25.9764818152      -35.0002012236  TIP3      5652            0.0000000000
     35672      5812  TIP3      H2            -29.8571558365       24.4811859167      -34.8077756136  TIP3      5652            0.0000000000
     35673      5813  TIP3      OH2           -22.1954692251       25.3296999059      -35.6635512059  TIP3      5653            0.0000000000
     35674      5813  TIP3      H1            -21.7312646247       24.9795428646      -34.8789301838  TIP3      5653            0.0000000000
     35675      5813  TIP3      H2            -21.6132380452       26.0608344614      -35.9005469188  TIP3      5653            0.0000000000
     35676      5814  TIP3      OH2           -32.1565355286       28.1710460728      -33.5854734125  TIP3      5654            0.0000000000
     35677      5814  TIP3      H1            -31.8124647707       27.3399560520      -33.2048537325  TIP3      5654            0.0000000000
     35678      5814  TIP3      H2            -32.4725279506       27.8086895730      -34.4478720437  TIP3      5654            0.0000000000
     35679      5815  TIP3      OH2           -27.6897403689       29.0347681426      -35.1819788875  TIP3      5655            0.0000000000
     35680      5815  TIP3      H1            -27.4366705299       29.4088338276      -34.3160448761  TIP3      5655            0.0000000000
     35681      5815  TIP3      H2            -27.6272963796       28.0789152999      -35.0045780780  TIP3      5655            0.0000000000
     35682      5816  TIP3      OH2           -17.3315666866       25.7419697104      -28.8127763174  TIP3      5656            0.0000000000
     35683      5816  TIP3      H1            -17.4455548672       26.7138572091      -28.9300991513  TIP3      5656            0.0000000000
     35684      5816  TIP3      H2            -17.4966827971       25.6869034161      -27.8620083698  TIP3      5656            0.0000000000
     35685      5817  TIP3      OH2           -30.3430976492       24.4507963535      -30.3335851639  TIP3      5657            0.0000000000
     35686      5817  TIP3      H1            -30.7232232737       25.0671868857      -30.9978607386  TIP3      5657            0.0000000000
     35687      5817  TIP3      H2            -30.9891895803       24.5227901823      -29.6098621369  TIP3      5657            0.0000000000
     35688      5818  TIP3      OH2           -23.4551020210       33.9757785972      -37.0146553380  TIP3      5658            0.0000000000
     35689      5818  TIP3      H1            -23.1980952704       33.4806699618      -37.8217629656  TIP3      5658            0.0000000000
     35690      5818  TIP3      H2            -22.9565249207       34.8095862933      -37.1638492200  TIP3      5658            0.0000000000
     35691      5819  TIP3      OH2           -28.3807889814       32.4735225532      -30.0790049004  TIP3      5659            0.0000000000
     35692      5819  TIP3      H1            -28.6803024312       33.3422042941      -29.7759449793  TIP3      5659            0.0000000000
     35693      5819  TIP3      H2            -27.5422128222       32.6576659982      -30.5530956677  TIP3      5659            0.0000000000
     35694      5820  TIP3      OH2           -20.1188147806       25.5398039718      -33.1581059433  TIP3      5660            0.0000000000
     35695      5820  TIP3      H1            -19.3216146586       24.9832825996      -33.1851376532  TIP3      5660            0.0000000000
     35696      5820  TIP3      H2            -19.8126612007       26.2311014911      -32.5325424597  TIP3      5660            0.0000000000
     35697      5821  TIP3      OH2           -30.9999392061       26.1697558857      -32.2743962864  TIP3      5661            0.0000000000
     35698      5821  TIP3      H1            -30.5378411572       26.9107809963      -31.8177476748  TIP3      5661            0.0000000000
     35699      5821  TIP3      H2            -30.2579101179       25.8617834440      -32.8452847626  TIP3      5661            0.0000000000
     35700      5822  TIP3      OH2           -30.1012660443       34.7900719032      -29.4578334482  TIP3      5662            0.0000000000
     35701      5822  TIP3      H1            -30.6910278171       34.5273714651      -30.1992827174  TIP3      5662            0.0000000000
     35702      5822  TIP3      H2            -30.6826324029       34.4262769865      -28.7454913071  TIP3      5662            0.0000000000
     35703      5823  TIP3      OH2           -33.8826615725       33.4730992311      -38.2631547006  TIP3      5663            0.0000000000
     35704      5823  TIP3      H1            -34.1135980184       33.6702251906      -39.1927412871  TIP3      5663            0.0000000000
     35705      5823  TIP3      H2            -34.6813793611       33.7573639821      -37.7760288260  TIP3      5663            0.0000000000
     35706      5824  TIP3      OH2           -20.2501220486       24.3410048834      -30.4240818798  TIP3      5664            0.0000000000
     35707      5824  TIP3      H1            -21.0922005119       24.5109087018      -30.8969813081  TIP3      5664            0.0000000000
     35708      5824  TIP3      H2            -19.6861376291       25.0320013040      -30.8130966570  TIP3      5664            0.0000000000
     35709      5825  TIP3      OH2           -27.3490430787       21.8118149283      -32.8860943748  TIP3      5665            0.0000000000
     35710      5825  TIP3      H1            -27.5338224059       20.8595023150      -32.7079097908  TIP3      5665            0.0000000000
     35711      5825  TIP3      H2            -28.2395036067       22.1999229133      -32.6979777228  TIP3      5665            0.0000000000
     35712      5826  TIP3      OH2           -19.5191238220       33.2715392878      -27.5903150629  TIP3      5666            0.0000000000
     35713      5826  TIP3      H1            -19.1916989154       32.7772278635      -28.3830388643  TIP3      5666            0.0000000000
     35714      5826  TIP3      H2            -19.4498813967       34.1992411415      -27.9018683697  TIP3      5666            0.0000000000
     35715      5827  TIP3      OH2           -24.9820532191       30.1754292788      -38.1757164432  TIP3      5667            0.0000000000
     35716      5827  TIP3      H1            -25.8688695642       30.5022381262      -37.9634200567  TIP3      5667            0.0000000000
     35717      5827  TIP3      H2            -24.5012312848       30.9727186857      -38.5143034621  TIP3      5667            0.0000000000
     35718      5828  TIP3      OH2           -24.2519868305       29.0074655452      -40.8130909063  TIP3      5668            0.0000000000
     35719      5828  TIP3      H1            -23.8129362355       29.6098599799      -40.1837928353  TIP3      5668            0.0000000000
     35720      5828  TIP3      H2            -23.4942189069       28.5368402894      -41.1925220537  TIP3      5668            0.0000000000
     35721      5829  TIP3      OH2           -17.5025916429       30.0140559546      -30.2850496447  TIP3      5669            0.0000000000
     35722      5829  TIP3      H1            -17.8071518117       30.8131306595      -29.8190773888  TIP3      5669            0.0000000000
     35723      5829  TIP3      H2            -16.8177478638       30.4184761397      -30.8441390384  TIP3      5669            0.0000000000
     35724      5830  TIP3      OH2           -21.1181442799       30.5381058795      -37.5840777173  TIP3      5670            0.0000000000
     35725      5830  TIP3      H1            -21.5828297265       31.1233392843      -36.9623752051  TIP3      5670            0.0000000000
     35726      5830  TIP3      H2            -20.3637399073       30.2465381754      -37.0302316647  TIP3      5670            0.0000000000
     35727      5831  TIP3      OH2           -21.4131185666       29.0417463332      -28.1563091325  TIP3      5671            0.0000000000
     35728      5831  TIP3      H1            -21.6911010425       29.5044096945      -27.3468958448  TIP3      5671            0.0000000000
     35729      5831  TIP3      H2            -22.2787495725       28.9672578658      -28.6281252457  TIP3      5671            0.0000000000
     35730      5832  TIP3      OH2           -30.1218917443       31.1387664680      -35.3781007215  TIP3      5672            0.0000000000
     35731      5832  TIP3      H1            -30.0097713648       30.7972729979      -36.2720913779  TIP3      5672            0.0000000000
     35732      5832  TIP3      H2            -29.2768598760       30.8410286988      -34.9846298497  TIP3      5672            0.0000000000
     35733      5833  TIP3      OH2           -28.6928393983       34.2829824264      -32.2983113219  TIP3      5673            0.0000000000
     35734      5833  TIP3      H1            -28.4056914841       33.3459803162      -32.3809700011  TIP3      5673            0.0000000000
     35735      5833  TIP3      H2            -28.1320978872       34.5738529990      -31.5569094011  TIP3      5673            0.0000000000
     35736      5834  TIP3      OH2           -28.6906133807       30.1084390578      -31.2623739745  TIP3      5674            0.0000000000
     35737      5834  TIP3      H1            -28.2716177528       30.4036064712      -32.1048143529  TIP3      5674            0.0000000000
     35738      5834  TIP3      H2            -28.7000389458       30.9392447122      -30.7507720199  TIP3      5674            0.0000000000
     35739      5835  TIP3      OH2           -28.9731559171       33.9852483203      -26.9132655690  TIP3      5675            0.0000000000
     35740      5835  TIP3      H1            -29.6077854669       34.7165820371      -26.8054453031  TIP3      5675            0.0000000000
     35741      5835  TIP3      H2            -29.5599626059       33.2713585315      -27.2209681688  TIP3      5675            0.0000000000
     35742      5836  TIP3      OH2           -21.6273354705       29.4825829133      -39.9576323718  TIP3      5676            0.0000000000
     35743      5836  TIP3      H1            -21.4366452974       29.8436738295      -39.0545615138  TIP3      5676            0.0000000000
     35744      5836  TIP3      H2            -21.7786082256       30.3273676205      -40.4189435384  TIP3      5676            0.0000000000
     35745      5837  TIP3      OH2           -31.2714503077       31.1371567886      -28.4457077205  TIP3      5677            0.0000000000
     35746      5837  TIP3      H1            -30.8813574387       31.0942271698      -27.5572843573  TIP3      5677            0.0000000000
     35747      5837  TIP3      H2            -32.2089805665       30.9733636185      -28.2096786046  TIP3      5677            0.0000000000
     35748      5838  TIP3      OH2           -18.1255885765       21.9521173928      -39.7205821093  TIP3      5678            0.0000000000
     35749      5838  TIP3      H1            -19.0602139784       21.7413575764      -39.9451312392  TIP3      5678            0.0000000000
     35750      5838  TIP3      H2            -18.1331297188       22.9190544088      -39.7461190871  TIP3      5678            0.0000000000
     35751      5839  TIP3      OH2           -30.0856850494       30.0110103353      -38.1077772456  TIP3      5679            0.0000000000
     35752      5839  TIP3      H1            -30.3633595813       30.9454431691      -38.1562241135  TIP3      5679            0.0000000000
     35753      5839  TIP3      H2            -30.8816717258       29.5941650262      -38.4724270347  TIP3      5679            0.0000000000
     35754      5840  TIP3      OH2           -34.4864291847       32.8006358440      -28.6757803362  TIP3      5680            0.0000000000
     35755      5840  TIP3      H1            -34.6529315964       32.7639706700      -29.6223057121  TIP3      5680            0.0000000000
     35756      5840  TIP3      H2            -34.2880780808       31.8623463603      -28.4562815114  TIP3      5680            0.0000000000
     35757      5841  TIP3      OH2           -19.6347631873       27.4695547695      -25.5302178216  TIP3      5681            0.0000000000
     35758      5841  TIP3      H1            -19.8038466925       28.2320141533      -26.0989072071  TIP3      5681            0.0000000000
     35759      5841  TIP3      H2            -19.6760516848       26.7691732200      -26.2019257241  TIP3      5681            0.0000000000
     35760      5842  TIP3      OH2           -32.0074650265       34.0528865493      -27.8393624016  TIP3      5682            0.0000000000
     35761      5842  TIP3      H1            -32.1586101853       33.8079431834      -26.8993766559  TIP3      5682            0.0000000000
     35762      5842  TIP3      H2            -32.8784085218       33.9243138519      -28.2538971872  TIP3      5682            0.0000000000
     35763      5843  TIP3      OH2           -29.6041401530       22.9484721773      -32.3866605155  TIP3      5683            0.0000000000
     35764      5843  TIP3      H1            -30.5626120247       22.8799170810      -32.5400060690  TIP3      5683            0.0000000000
     35765      5843  TIP3      H2            -29.6103280201       23.5849088412      -31.6353671387  TIP3      5683            0.0000000000
     35766      5844  TIP3      OH2           -25.0612947287       22.5197710826      -28.7258746483  TIP3      5684            0.0000000000
     35767      5844  TIP3      H1            -24.7444134944       22.3031842081      -27.8217626393  TIP3      5684            0.0000000000
     35768      5844  TIP3      H2            -26.0425377065       22.4677397468      -28.6448925804  TIP3      5684            0.0000000000
     35769      5845  TIP3      OH2           -21.7853484155       26.3570181813      -27.5331817583  TIP3      5685            0.0000000000
     35770      5845  TIP3      H1            -22.0669045616       26.1714462392      -26.6151900791  TIP3      5685            0.0000000000
     35771      5845  TIP3      H2            -22.0522102133       27.2787980673      -27.6246184315  TIP3      5685            0.0000000000
     35772      5846  TIP3      OH2           -20.4062898177       31.3242971110      -41.9905114646  TIP3      5686            0.0000000000
     35773      5846  TIP3      H1            -20.1568252263       31.8399072550      -42.7922965637  TIP3      5686            0.0000000000
     35774      5846  TIP3      H2            -21.0256746330       31.9939444092      -41.6305476351  TIP3      5686            0.0000000000
     35775      5847  TIP3      OH2           -25.5436794964       25.0353194057      -40.6322391066  TIP3      5687            0.0000000000
     35776      5847  TIP3      H1            -25.2424041695       25.3919264918      -39.7741367652  TIP3      5687            0.0000000000
     35777      5847  TIP3      H2            -26.2942088535       25.6288445663      -40.8777070014  TIP3      5687            0.0000000000
     35778      5848  TIP3      OH2           -29.3589055163       27.6345852085      -30.6518468223  TIP3      5688            0.0000000000
     35779      5848  TIP3      H1            -30.0517372846       27.7239942234      -29.9597403928  TIP3      5688            0.0000000000
     35780      5848  TIP3      H2            -29.1789081789       28.5963798056      -30.8272168897  TIP3      5688            0.0000000000
     35781      5849  TIP3      OH2           -29.8057690489       27.4603890273      -35.8626688707  TIP3      5689            0.0000000000
     35782      5849  TIP3      H1            -30.6889167994       27.8840710312      -35.8492724487  TIP3      5689            0.0000000000
     35783      5849  TIP3      H2            -29.2439211577       28.1800774884      -36.2073591825  TIP3      5689            0.0000000000
     35784      5850  TIP3      OH2           -23.4227621467       28.3206827758      -36.6280531729  TIP3      5690            0.0000000000
     35785      5850  TIP3      H1            -23.7554467052       29.1048026637      -37.1086574613  TIP3      5690            0.0000000000
     35786      5850  TIP3      H2            -23.0398134111       27.8116606624      -37.3730906626  TIP3      5690            0.0000000000
     35787      5851  TIP3      OH2           -24.4378316697       28.3219986978      -25.6477005796  TIP3      5691            0.0000000000
     35788      5851  TIP3      H1            -25.2905125652       27.9900254323      -25.3130167889  TIP3      5691            0.0000000000
     35789      5851  TIP3      H2            -23.9662689865       28.5136483711      -24.8283460965  TIP3      5691            0.0000000000
     35790      5852  TIP3      OH2           -22.6523430067       28.1329521678      -33.9333972527  TIP3      5692            0.0000000000
     35791      5852  TIP3      H1            -22.8253459945       28.6852426218      -34.7258561764  TIP3      5692            0.0000000000
     35792      5852  TIP3      H2            -22.9838643803       27.2868668784      -34.2736700467  TIP3      5692            0.0000000000
     35793      5853  TIP3      OH2           -31.6473016328       27.5516844854      -29.3185103064  TIP3      5693            0.0000000000
     35794      5853  TIP3      H1            -31.3900049517       28.0769805172      -28.5420860730  TIP3      5693            0.0000000000
     35795      5853  TIP3      H2            -32.0291327490       26.7411239228      -28.9204810070  TIP3      5693            0.0000000000
     35796      5854  TIP3      OH2           -28.1662359883       25.9921226662      -41.5889832605  TIP3      5694            0.0000000000
     35797      5854  TIP3      H1            -28.6882538870       25.6466281546      -40.8411334424  TIP3      5694            0.0000000000
     35798      5854  TIP3      H2            -28.6223019041       25.6124966138      -42.3618130971  TIP3      5694            0.0000000000
     35799      5855  TIP3      OH2           -34.4561802904       23.9205925310      -34.6486699854  TIP3      5695            0.0000000000
     35800      5855  TIP3      H1            -33.9168221048       24.7071085073      -34.5379190605  TIP3      5695            0.0000000000
     35801      5855  TIP3      H2            -34.3666740659       23.7978000199      -35.6068934835  TIP3      5695            0.0000000000
     35802      5856  TIP3      OH2           -32.9113296245       25.4434217303      -39.5793716974  TIP3      5696            0.0000000000
     35803      5856  TIP3      H1            -32.8652695605       26.2411007877      -40.1493729271  TIP3      5696            0.0000000000
     35804      5856  TIP3      H2            -33.7630392739       25.1222233929      -39.9202133588  TIP3      5696            0.0000000000
     35805      5857  TIP3      OH2           -23.6436710768       28.9557030585      -29.4678199012  TIP3      5697            0.0000000000
     35806      5857  TIP3      H1            -23.2009401857       28.3321461531      -30.0936613473  TIP3      5697            0.0000000000
     35807      5857  TIP3      H2            -24.2891242373       28.3437296285      -29.0373567289  TIP3      5697            0.0000000000
     35808      5858  TIP3      OH2           -26.7523987991       25.6438074591      -34.7059036045  TIP3      5698            0.0000000000
     35809      5858  TIP3      H1            -27.6821763851       25.4965218540      -34.4259734359  TIP3      5698            0.0000000000
     35810      5858  TIP3      H2            -26.2823060977       24.8903023633      -34.2886837694  TIP3      5698            0.0000000000
     35811      5859  TIP3      OH2           -32.4528705415       27.0878377562      -35.9050012587  TIP3      5699            0.0000000000
     35812      5859  TIP3      H1            -33.1050421890       27.3982297119      -36.5580700789  TIP3      5699            0.0000000000
     35813      5859  TIP3      H2            -32.2713472365       26.1586761354      -36.1537522019  TIP3      5699            0.0000000000
     35814      5860  TIP3      OH2           -28.3894624902       27.3244725652      -38.6960493309  TIP3      5700            0.0000000000
     35815      5860  TIP3      H1            -27.4870440963       27.3331558746      -38.3489165716  TIP3      5700            0.0000000000
     35816      5860  TIP3      H2            -28.8058768544       28.0128379684      -38.1571900576  TIP3      5700            0.0000000000
     35817      5861  TIP3      OH2           -22.7533224592       24.6115743821      -31.4069435858  TIP3      5701            0.0000000000
     35818      5861  TIP3      H1            -23.4651058695       24.3502432583      -30.8002387104  TIP3      5701            0.0000000000
     35819      5861  TIP3      H2            -22.6659436660       23.8615048512      -32.0166813518  TIP3      5701            0.0000000000
     35820      5862  TIP3      OH2           -30.0742744454       29.0313601721      -41.2516256060  TIP3      5702            0.0000000000
     35821      5862  TIP3      H1            -31.0378683633       28.8163921172      -41.2847723825  TIP3      5702            0.0000000000
     35822      5862  TIP3      H2            -29.7416264961       28.2099669058      -40.8719669456  TIP3      5702            0.0000000000
     35823      5863  TIP3      OH2           -31.7884437798       33.5113449447      -25.2628493691  TIP3      5703            0.0000000000
     35824      5863  TIP3      H1            -31.1553517370       33.0653327575      -24.6637247105  TIP3      5703            0.0000000000
     35825      5863  TIP3      H2            -32.6499481789       33.2066863386      -24.9177785103  TIP3      5703            0.0000000000
     35826      5864  TIP3      OH2           -25.8155452215       27.9786830890      -32.6473617806  TIP3      5704            0.0000000000
     35827      5864  TIP3      H1            -25.2312076964       27.7505411077      -33.3744295960  TIP3      5704            0.0000000000
     35828      5864  TIP3      H2            -26.2828227356       27.1487796776      -32.4595474574  TIP3      5704            0.0000000000
     35829      5865  TIP3      OH2           -31.4126524224       24.6564421414      -36.2267881835  TIP3      5705            0.0000000000
     35830      5865  TIP3      H1            -31.6726996895       23.7342755146      -36.0085007771  TIP3      5705            0.0000000000
     35831      5865  TIP3      H2            -30.6445750504       24.6762460784      -36.8152157518  TIP3      5705            0.0000000000
     35832      5866  TIP3      OH2           -26.9654754813       26.5346601725      -30.5554273383  TIP3      5706            0.0000000000
     35833      5866  TIP3      H1            -27.7991925638       27.0314031714      -30.7322760872  TIP3      5706            0.0000000000
     35834      5866  TIP3      H2            -26.3795301616       27.2511578050      -30.2774672329  TIP3      5706            0.0000000000
     35835      5867  TIP3      OH2           -26.9917168373       33.7731715984      -39.2412812334  TIP3      5707            0.0000000000
     35836      5867  TIP3      H1            -27.4250325423       33.0051843183      -39.6685046987  TIP3      5707            0.0000000000
     35837      5867  TIP3      H2            -26.6029403236       33.3465936191      -38.4603773099  TIP3      5707            0.0000000000
     35838      5868  TIP3      OH2           -18.9265190346       32.2102152755      -29.9732727646  TIP3      5708            0.0000000000
     35839      5868  TIP3      H1            -18.4045556582       32.8154179249      -30.5598266826  TIP3      5708            0.0000000000
     35840      5868  TIP3      H2            -19.4615139653       31.7602164449      -30.6497860615  TIP3      5708            0.0000000000
     35841      5869  TIP3      OH2           -22.2072280262       25.6558390365      -40.8997108947  TIP3      5709            0.0000000000
     35842      5869  TIP3      H1            -22.9661362589       25.7306111638      -40.2859812948  TIP3      5709            0.0000000000
     35843      5869  TIP3      H2            -21.5477583163       25.9959732300      -40.2604508183  TIP3      5709            0.0000000000
     35844      5870  TIP3      OH2           -24.8074017220       33.1140890845      -27.3945476515  TIP3      5710            0.0000000000
     35845      5870  TIP3      H1            -25.2954749130       32.2757055064      -27.3681968178  TIP3      5710            0.0000000000
     35846      5870  TIP3      H2            -25.3564605806       33.6792935303      -26.8348436047  TIP3      5710            0.0000000000
     35847      5871  TIP3      OH2           -22.1494312183       27.0030165377      -38.6084943340  TIP3      5711            0.0000000000
     35848      5871  TIP3      H1            -21.3386492099       27.0659016022      -38.0566418480  TIP3      5711            0.0000000000
     35849      5871  TIP3      H2            -22.0179526143       27.7808309249      -39.1913783673  TIP3      5711            0.0000000000
     35850      5872  TIP3      OH2           -31.3294280275       32.1246421221      -33.3394398584  TIP3      5712            0.0000000000
     35851      5872  TIP3      H1            -30.8975992523       31.5469941372      -34.0090340989  TIP3      5712            0.0000000000
     35852      5872  TIP3      H2            -31.9185831391       31.4486608990      -32.9531807877  TIP3      5712            0.0000000000
     35853      5873  TIP3      OH2           -24.0232927029       35.0784361654      -40.3009429638  TIP3      5713            0.0000000000
     35854      5873  TIP3      H1            -24.6696471148       35.1702954651      -39.5879764537  TIP3      5713            0.0000000000
     35855      5873  TIP3      H2            -23.6772629441       34.1770965831      -40.1190035394  TIP3      5713            0.0000000000
     35856      5874  TIP3      OH2           -33.8491527885       30.3548030234      -27.8111479033  TIP3      5714            0.0000000000
     35857      5874  TIP3      H1            -33.7213639997       29.9854116218      -26.9275032668  TIP3      5714            0.0000000000
     35858      5874  TIP3      H2            -34.7341019216       30.0124886454      -28.0378491915  TIP3      5714            0.0000000000
     35859      5875  TIP3      OH2           -26.8317669092       30.1199785335      -25.8167172648  TIP3      5715            0.0000000000
     35860      5875  TIP3      H1            -27.7296595598       29.8862925223      -26.1078845420  TIP3      5715            0.0000000000
     35861      5875  TIP3      H2            -26.3001105394       29.9203736849      -26.6082956089  TIP3      5715            0.0000000000
     35862      5876  TIP3      OH2           -16.6748398560       27.5808936865      -39.4108830765  TIP3      5716            0.0000000000
     35863      5876  TIP3      H1            -17.3126338341       27.4274039044      -40.1359318942  TIP3      5716            0.0000000000
     35864      5876  TIP3      H2            -16.6009829694       28.5683584519      -39.5503449687  TIP3      5716            0.0000000000
     35865      5877  TIP3      OH2           -17.2735512717       32.9677483509      -25.9456942407  TIP3      5717            0.0000000000
     35866      5877  TIP3      H1            -17.5420663427       33.8165301685      -26.3459554916  TIP3      5717            0.0000000000
     35867      5877  TIP3      H2            -16.7625757213       32.6323290017      -26.7111503990  TIP3      5717            0.0000000000
     35868      5878  TIP3      OH2           -21.3389545082       31.3184331341      -31.9703933345  TIP3      5718            0.0000000000
     35869      5878  TIP3      H1            -22.2241583058       31.2660479572      -32.3868502312  TIP3      5718            0.0000000000
     35870      5878  TIP3      H2            -20.8541808337       30.6312015205      -32.4748545212  TIP3      5718            0.0000000000
     35871      5879  TIP3      OH2           -33.1407189633       30.0924007330      -41.1002551076  TIP3      5719            0.0000000000
     35872      5879  TIP3      H1            -32.5326748100       30.7611405993      -41.4590032080  TIP3      5719            0.0000000000
     35873      5879  TIP3      H2            -33.8034829829       30.6417152425      -40.6562765152  TIP3      5719            0.0000000000
     35874      5880  TIP3      OH2           -27.7443132765       32.4594419320      -36.4068994497  TIP3      5720            0.0000000000
     35875      5880  TIP3      H1            -27.2976669885       33.3187268173      -36.4268783859  TIP3      5720            0.0000000000
     35876      5880  TIP3      H2            -27.3915327881       32.0656408603      -35.5672080122  TIP3      5720            0.0000000000
     35877      5881  TIP3      OH2           -23.7802415154       33.7520796081      -29.9092476084  TIP3      5721            0.0000000000
     35878      5881  TIP3      H1            -24.3719650376       33.6005399273      -29.1455447666  TIP3      5721            0.0000000000
     35879      5881  TIP3      H2            -23.1820993811       34.4058642089      -29.5388505024  TIP3      5721            0.0000000000
     35880      5882  TIP3      OH2           -21.4452192040       33.7593089204      -41.5406170787  TIP3      5722            0.0000000000
     35881      5882  TIP3      H1            -21.2554981413       34.6534054392      -41.2168514205  TIP3      5722            0.0000000000
     35882      5882  TIP3      H2            -21.9070295210       33.3884007956      -40.7607528224  TIP3      5722            0.0000000000
     35883      5883  TIP3      OH2           -32.7267968537       25.3194280833      -28.3340748397  TIP3      5723            0.0000000000
     35884      5883  TIP3      H1            -33.1885521864       25.6872214469      -27.5567971590  TIP3      5723            0.0000000000
     35885      5883  TIP3      H2            -32.4230936092       24.4551808660      -27.9711116402  TIP3      5723            0.0000000000
     35886      5884  TIP3      OH2           -19.9390126862       33.1815107317      -38.1809563572  TIP3      5724            0.0000000000
     35887      5884  TIP3      H1            -20.3315488153       32.4729314089      -38.7221263866  TIP3      5724            0.0000000000
     35888      5884  TIP3      H2            -19.1568302693       33.4497089089      -38.6826839177  TIP3      5724            0.0000000000
     35889      5885  TIP3      OH2           -31.3206187808       32.5576003578      -38.6388016392  TIP3      5725            0.0000000000
     35890      5885  TIP3      H1            -32.2412590208       32.8665381716      -38.4669531055  TIP3      5725            0.0000000000
     35891      5885  TIP3      H2            -31.2119920180       32.7448156565      -39.5867528174  TIP3      5725            0.0000000000
     35892      5886  TIP3      OH2           -24.0613337777       24.9484165178      -28.6721591348  TIP3      5726            0.0000000000
     35893      5886  TIP3      H1            -23.1030152960       24.8644561534      -28.5453324314  TIP3      5726            0.0000000000
     35894      5886  TIP3      H2            -24.3564899515       24.0094782515      -28.7493537107  TIP3      5726            0.0000000000
     35895      5887  TIP3      OH2           -23.1314633719       24.3430108159      -38.2926327693  TIP3      5727            0.0000000000
     35896      5887  TIP3      H1            -22.7750830719       25.2025264618      -37.9776585714  TIP3      5727            0.0000000000
     35897      5887  TIP3      H2            -22.7903084500       23.7382273058      -37.5951419195  TIP3      5727            0.0000000000
     35898      5888  TIP3      OH2           -25.8170402252       26.5048018997      -37.9274304064  TIP3      5728            0.0000000000
     35899      5888  TIP3      H1            -25.3832126159       27.3417142896      -37.6875910725  TIP3      5728            0.0000000000
     35900      5888  TIP3      H2            -25.9599308765       26.1010778587      -37.0549329435  TIP3      5728            0.0000000000
     35901      5889  TIP3      OH2           -25.0576462402       27.2876363963      -28.1002343170  TIP3      5729            0.0000000000
     35902      5889  TIP3      H1            -24.6287938484       27.4413119372      -27.2344514553  TIP3      5729            0.0000000000
     35903      5889  TIP3      H2            -24.7383274375       26.3796278841      -28.3249813166  TIP3      5729            0.0000000000
     35904      5890  TIP3      OH2           -25.4697112610       23.7911492080      -36.6697189519  TIP3      5730            0.0000000000
     35905      5890  TIP3      H1            -25.5171095876       23.5520610416      -35.7152134732  TIP3      5730            0.0000000000
     35906      5890  TIP3      H2            -24.5522931639       24.1298019656      -36.6975111166  TIP3      5730            0.0000000000
     35907      5891  TIP3      OH2           -29.8174695957       24.4317507718      -39.8947748763  TIP3      5731            0.0000000000
     35908      5891  TIP3      H1            -30.2627622046       25.0519019169      -39.2902026637  TIP3      5731            0.0000000000
     35909      5891  TIP3      H2            -28.9669752607       24.2354414907      -39.4323052119  TIP3      5731            0.0000000000
     35910      5892  TIP3      OH2           -19.6515888056       24.8277419918      -27.5165979166  TIP3      5732            0.0000000000
     35911      5892  TIP3      H1            -20.5360943438       25.2314513918      -27.6782935697  TIP3      5732            0.0000000000
     35912      5892  TIP3      H2            -19.3048137224       24.7956733153      -28.4323180769  TIP3      5732            0.0000000000
     35913      5893  TIP3      OH2           -20.2518295298       29.1939561150      -33.3376925554  TIP3      5733            0.0000000000
     35914      5893  TIP3      H1            -21.0639693950       28.6445711678      -33.3474979784  TIP3      5733            0.0000000000
     35915      5893  TIP3      H2            -19.6439320477       28.6762264587      -32.7610909943  TIP3      5733            0.0000000000
     35916      5894  TIP3      OH2           -30.0229001032       34.9343635709      -40.2205058381  TIP3      5734            0.0000000000
     35917      5894  TIP3      H1            -30.8658995518       34.7150086445      -40.6414520104  TIP3      5734            0.0000000000
     35918      5894  TIP3      H2            -29.4321525489       34.3727401449      -40.7731123514  TIP3      5734            0.0000000000
     35919      5895  TIP3      OH2           -32.2863410565       27.4575982643      -41.4663509404  TIP3      5735            0.0000000000
     35920      5895  TIP3      H1            -32.8748889029       28.2396882310      -41.4290977766  TIP3      5735            0.0000000000
     35921      5895  TIP3      H2            -32.6892466884       26.8733504299      -42.1450513151  TIP3      5735            0.0000000000
     35922      5896  TIP3      OH2           -32.3370357874       22.3667646244      -32.6489669236  TIP3      5736            0.0000000000
     35923      5896  TIP3      H1            -32.4923863389       22.0211994464      -33.5494991307  TIP3      5736            0.0000000000
     35924      5896  TIP3      H2            -32.8147861551       21.6762033621      -32.1278437924  TIP3      5736            0.0000000000
     35925      5897  TIP3      OH2           -34.2974334825       32.4972336845      -24.8738436759  TIP3      5737            0.0000000000
     35926      5897  TIP3      H1            -34.3011747117       31.5239407859      -24.8418680248  TIP3      5737            0.0000000000
     35927      5897  TIP3      H2            -35.1450838219       32.7201599612      -25.2833179686  TIP3      5737            0.0000000000
     35928      5898  TIP3      OH2           -28.9673649950       33.1553811356      -41.8984866789  TIP3      5738            0.0000000000
     35929      5898  TIP3      H1            -28.6932081128       32.4123068472      -41.3160830911  TIP3      5738            0.0000000000
     35930      5898  TIP3      H2            -28.9927653519       32.7231848650      -42.7718399734  TIP3      5738            0.0000000000
     35931      5899  TIP3      OH2           -27.0337445640       32.9488202980      -24.9329976986  TIP3      5739            0.0000000000
     35932      5899  TIP3      H1            -27.7219898140       32.8651444060      -25.6187370526  TIP3      5739            0.0000000000
     35933      5899  TIP3      H2            -26.6745676732       32.0413011919      -24.9504877698  TIP3      5739            0.0000000000
     35934      5900  TIP3      OH2           -21.9968027605       32.5487920784      -27.6765173911  TIP3      5740            0.0000000000
     35935      5900  TIP3      H1            -21.1680299653       33.0724851921      -27.5216842846  TIP3      5740            0.0000000000
     35936      5900  TIP3      H2            -22.6911572247       33.0481545117      -27.1964186401  TIP3      5740            0.0000000000
     35937      5901  TIP3      OH2           -33.0983475551       29.9316553075      -24.2632181564  TIP3      5741            0.0000000000
     35938      5901  TIP3      H1            -32.1940444156       30.0143851603      -24.6468759532  TIP3      5741            0.0000000000
     35939      5901  TIP3      H2            -33.0252330530       30.3862721280      -23.3972510308  TIP3      5741            0.0000000000
     35940      5902  TIP3      OH2           -28.3866381293       31.3953091579      -40.1047972550  TIP3      5742            0.0000000000
     35941      5902  TIP3      H1            -28.9034718390       30.8942201546      -39.4551032143  TIP3      5742            0.0000000000
     35942      5902  TIP3      H2            -27.9711711697       30.6586542881      -40.5849816755  TIP3      5742            0.0000000000
     35943      5903  TIP3      OH2           -29.1980318901       28.6996226321      -27.7436874130  TIP3      5743            0.0000000000
     35944      5903  TIP3      H1            -29.5415646632       29.0964834234      -26.9036054076  TIP3      5743            0.0000000000
     35945      5903  TIP3      H2            -28.8827391942       29.4741325590      -28.2103069570  TIP3      5743            0.0000000000
     35946      5904  TIP3      OH2           -26.8067654760       29.3888853417      -41.5072932702  TIP3      5744            0.0000000000
     35947      5904  TIP3      H1            -25.9829634243       29.3201745226      -42.0320232324  TIP3      5744            0.0000000000
     35948      5904  TIP3      H2            -26.3595750444       29.3705739029      -40.6460457825  TIP3      5744            0.0000000000
     35949      5905  TIP3      OH2           -23.9485388300       31.5761699332      -24.6707333738  TIP3      5745            0.0000000000
     35950      5905  TIP3      H1            -23.1253028058       31.1138058742      -24.9161208522  TIP3      5745            0.0000000000
     35951      5905  TIP3      H2            -24.3452400758       30.8424813463      -24.1517838133  TIP3      5745            0.0000000000
     35952      5906  TIP3      OH2           -17.6188553852       32.0359829293      -42.1895845140  TIP3      5746            0.0000000000
     35953      5906  TIP3      H1            -18.5677386021       31.8495290095      -42.0606737314  TIP3      5746            0.0000000000
     35954      5906  TIP3      H2            -17.6786566610       32.9533494940      -42.5103334118  TIP3      5746            0.0000000000
     35955      5907  TIP3      OH2           -28.2670789026       26.3300645871      -26.6994525618  TIP3      5747            0.0000000000
     35956      5907  TIP3      H1            -28.1753597055       25.7251632257      -27.4691393896  TIP3      5747            0.0000000000
     35957      5907  TIP3      H2            -28.3900151181       27.1543625789      -27.2100861989  TIP3      5747            0.0000000000
     35958      5908  TIP3      OH2           -28.1283063212       24.8878742126      -28.8888570924  TIP3      5748            0.0000000000
     35959      5908  TIP3      H1            -27.4078090417       25.3271324525      -29.4018462046  TIP3      5748            0.0000000000
     35960      5908  TIP3      H2            -28.8379606648       24.9158324960      -29.5667942046  TIP3      5748            0.0000000000
     35961      5909  TIP3      OH2           -26.6711834179       30.7213275041      -28.7375319671  TIP3      5749            0.0000000000
     35962      5909  TIP3      H1            -26.5017234459       30.3200164062      -29.6031933448  TIP3      5749            0.0000000000
     35963      5909  TIP3      H2            -27.2812067188       31.4240338125      -29.0386087569  TIP3      5749            0.0000000000
     35964      5910  TIP3      OH2           -22.1487052272       27.7864696298      -23.7454722938  TIP3      5750            0.0000000000
     35965      5910  TIP3      H1            -21.8038991889       27.0806500020      -24.3089428555  TIP3      5750            0.0000000000
     35966      5910  TIP3      H2            -21.7868772483       28.5752441749      -24.1739356082  TIP3      5750            0.0000000000
     35967      5911  TIP3      OH2           -21.4766203890       30.3699413936      -25.7669090643  TIP3      5751            0.0000000000
     35968      5911  TIP3      H1            -21.4777214010       31.0593557341      -26.4625647227  TIP3      5751            0.0000000000
     35969      5911  TIP3      H2            -20.5254626042       30.3133972515      -25.5300782410  TIP3      5751            0.0000000000
     35970      5912  TIP3      OH2           -30.3066611446       26.4140372677      -24.8551999681  TIP3      5752            0.0000000000
     35971      5912  TIP3      H1            -30.7015312858       27.2934708924      -24.8230148848  TIP3      5752            0.0000000000
     35972      5912  TIP3      H2            -29.5964152194       26.5107152779      -25.5313340472  TIP3      5752            0.0000000000
     35973      5913  TIP3      OH2           -27.6986465915       22.1796737025      -28.7935941756  TIP3      5753            0.0000000000
     35974      5913  TIP3      H1            -28.0438975859       23.1039880333      -28.7683222692  TIP3      5753            0.0000000000
     35975      5913  TIP3      H2            -28.4370856305       21.6866452775      -29.1983915712  TIP3      5753            0.0000000000
     35976      5914  TIP3      OH2           -26.4470000837       26.3162382783      -24.6483590651  TIP3      5754            0.0000000000
     35977      5914  TIP3      H1            -26.9899282772       27.0734938187      -24.3796396498  TIP3      5754            0.0000000000
     35978      5914  TIP3      H2            -26.9139901978       26.0659341865      -25.4821618597  TIP3      5754            0.0000000000
     35979      5915  TIP3      OH2           -23.3248991455       25.6697308802      -25.5606035644  TIP3      5755            0.0000000000
     35980      5915  TIP3      H1            -23.8223366353       25.3063192463      -26.3154620646  TIP3      5755            0.0000000000
     35981      5915  TIP3      H2            -23.1385415655       24.8871229183      -25.0001536316  TIP3      5755            0.0000000000
     35982      5916  TIP3      OH2           -22.6005111921       23.8226596872      -23.8311177275  TIP3      5756            0.0000000000
     35983      5916  TIP3      H1            -22.4697244323       22.8568189948      -24.0287540483  TIP3      5756            0.0000000000
     35984      5916  TIP3      H2            -21.6786028741       24.0873652238      -23.6858077529  TIP3      5756            0.0000000000
     35985      5917  TIP3      OH2           -32.6658977740       24.9352752186      -24.7306739323  TIP3      5757            0.0000000000
     35986      5917  TIP3      H1            -31.7281131998       25.1885770316      -24.8336281999  TIP3      5757            0.0000000000
     35987      5917  TIP3      H2            -32.7581087762       25.0104726565      -23.7639332588  TIP3      5757            0.0000000000
     35988      5918  TIP3      OH2           -27.7818246619       21.6684339598      -25.9544499725  TIP3      5758            0.0000000000
     35989      5918  TIP3      H1            -26.9946818554       21.0970066514      -25.8187686989  TIP3      5758            0.0000000000
     35990      5918  TIP3      H2            -27.8329538436       21.5712138173      -26.9255875122  TIP3      5758            0.0000000000
     35991      5919  TIP3      OH2           -26.9268893299       23.1839792517      -23.7726429180  TIP3      5759            0.0000000000
     35992      5919  TIP3      H1            -27.2891064521       22.6593947582      -24.5243055146  TIP3      5759            0.0000000000
     35993      5919  TIP3      H2            -27.6664720606       23.7947537147      -23.6047885301  TIP3      5759            0.0000000000
     35994      5920  TIP3      OH2           -33.5458894189       33.6151955028      -41.0096558029  TIP3      5760            0.0000000000
     35995      5920  TIP3      H1            -33.3790920544       34.5705778197      -41.0179593815  TIP3      5760            0.0000000000
     35996      5920  TIP3      H2            -34.0625336648       33.5801488769      -41.8539045237  TIP3      5760            0.0000000000
     35997      5921  TIP3      OH2           -19.2628193581       35.0942097565      -23.6065108923  TIP3      5761            0.0000000000
     35998      5921  TIP3      H1            -19.5634889414       34.9620683469      -22.6916565560  TIP3      5761            0.0000000000
     35999      5921  TIP3      H2            -18.5045663401       35.6945153580      -23.4982699652  TIP3      5761            0.0000000000
     36000      5922  TIP3      OH2           -17.2060346700       32.1076872804      -38.2907459378  TIP3      5762            0.0000000000
     36001      5922  TIP3      H1            -16.5988972343       32.8208414890      -38.0424705774  TIP3      5762            0.0000000000
     36002      5922  TIP3      H2            -17.3916223784       31.6760013879      -37.4199480385  TIP3      5762            0.0000000000
     36003      5923  TIP3      OH2           -17.1131767588       30.4272233416      -36.1325628922  TIP3      5763            0.0000000000
     36004      5923  TIP3      H1            -17.9703994779       30.0154838099      -35.8826096151  TIP3      5763            0.0000000000
     36005      5923  TIP3      H2            -16.5967346558       30.4316602136      -35.3053003554  TIP3      5763            0.0000000000
     36006      5924  TIP3      OH2           -17.6216079870       33.2816035906      -31.9322786520  TIP3      5764            0.0000000000
     36007      5924  TIP3      H1            -16.9770111536       32.5437863163      -32.0600777177  TIP3      5764            0.0000000000
     36008      5924  TIP3      H2            -17.0205579948       33.9875974984      -31.6688464485  TIP3      5764            0.0000000000
     36009      5925  TIP3      OH2           -16.9893714830       30.0511631534      -40.0798557437  TIP3      5765            0.0000000000
     36010      5925  TIP3      H1            -17.3098475764       30.5927112161      -40.8210844686  TIP3      5765            0.0000000000
     36011      5925  TIP3      H2            -16.9518440995       30.7241256775      -39.3596721228  TIP3      5765            0.0000000000
     36012      5926  TIP3      OH2           -19.2150827272       27.5500191344      -41.6333514287  TIP3      5766            0.0000000000
     36013      5926  TIP3      H1            -18.9933065932       28.4408512123      -41.9423671078  TIP3      5766            0.0000000000
     36014      5926  TIP3      H2            -18.6126694982       27.0448633935      -42.2159709575  TIP3      5766            0.0000000000
     36015      5927  TIP3      OH2           -19.4988680729       29.3170010192      -35.9032527730  TIP3      5767            0.0000000000
     36016      5927  TIP3      H1            -19.6163197202       28.3698261244      -36.0915442475  TIP3      5767            0.0000000000
     36017      5927  TIP3      H2            -19.7173029117       29.3593395329      -34.9437440204  TIP3      5767            0.0000000000
     36018      5928  TIP3      OH2           -34.4126988517       30.7617578968      -31.1486402872  TIP3      5768            0.0000000000
     36019      5928  TIP3      H1            -34.5727892990       31.0289205020      -32.0696495274  TIP3      5768            0.0000000000
     36020      5928  TIP3      H2            -33.4275736782       30.8487550758      -31.1253973448  TIP3      5768            0.0000000000
     36021      5929  TIP3      OH2           -18.7023357891       30.5017444830      -25.9674031697  TIP3      5769            0.0000000000
     36022      5929  TIP3      H1            -18.1384372504       29.8518292008      -25.4816127481  TIP3      5769            0.0000000000
     36023      5929  TIP3      H2            -17.9502195279       31.0333438507      -26.3201173641  TIP3      5769            0.0000000000
     36024      5930  TIP3      OH2           -17.2578691917       28.6043461178      -24.6787675129  TIP3      5770            0.0000000000
     36025      5930  TIP3      H1            -17.9958967849       27.9827773075      -24.8047522374  TIP3      5770            0.0000000000
     36026      5930  TIP3      H2            -16.5433874583       28.1296467224      -25.1719432521  TIP3      5770            0.0000000000
     36027      5931  TIP3      OH2           -19.0253451656       24.9101164737      -42.6319214473  TIP3      5771            0.0000000000
     36028      5931  TIP3      H1            -18.6205271137       24.9228815628      -41.7494690315  TIP3      5771            0.0000000000
     36029      5931  TIP3      H2            -19.9658295560       25.0886911414      -42.4678517960  TIP3      5771            0.0000000000
     36030      5932  TIP3      OH2           -19.8654064377       26.8402770713      -37.2119672012  TIP3      5772            0.0000000000
     36031      5932  TIP3      H1            -19.6412794285       25.8881836768      -37.1086409403  TIP3      5772            0.0000000000
     36032      5932  TIP3      H2            -19.2635791446       27.0687577458      -37.9385816871  TIP3      5772            0.0000000000
     36033      5933  TIP3      OH2           -18.9213608100       27.6049876414      -31.4718398538  TIP3      5773            0.0000000000
     36034      5933  TIP3      H1            -17.9702012574       27.7299271500      -31.6933468278  TIP3      5773            0.0000000000
     36035      5933  TIP3      H2            -18.7917450555       27.7030555723      -30.5093534107  TIP3      5773            0.0000000000
     36036      5934  TIP3      OH2           -18.8703321531       27.9508449509      -28.7587099286  TIP3      5774            0.0000000000
     36037      5934  TIP3      H1            -19.8021160662       28.2660700624      -28.8039793595  TIP3      5774            0.0000000000
     36038      5934  TIP3      H2            -18.3596826044       28.7733929327      -28.8655561907  TIP3      5774            0.0000000000
     36039      5935  TIP3      OH2           -34.2646813876       26.4477108551      -26.2599727131  TIP3      5775            0.0000000000
     36040      5935  TIP3      H1            -33.6063921274       26.1174669944      -25.6070134568  TIP3      5775            0.0000000000
     36041      5935  TIP3      H2            -34.8643185255       25.6789923449      -26.2718123371  TIP3      5775            0.0000000000
     36042      5936  TIP3      OH2           -16.6138923016       22.7120843947      -24.1737242877  TIP3      5776            0.0000000000
     36043      5936  TIP3      H1            -16.2304314882       22.0152945080      -24.7384020811  TIP3      5776            0.0000000000
     36044      5936  TIP3      H2            -16.2283220798       23.4994435212      -24.5941825895  TIP3      5776            0.0000000000
     36045      5937  TIP3      OH2           -18.8420840127       24.2483487555      -37.6760131117  TIP3      5777            0.0000000000
     36046      5937  TIP3      H1            -18.6637334386       23.7979809500      -36.8248303871  TIP3      5777            0.0000000000
     36047      5937  TIP3      H2            -19.4293826729       23.5629055807      -38.1044283579  TIP3      5777            0.0000000000
     36048      5938  TIP3      OH2           -33.4241922005       24.7652331957      -31.9094473974  TIP3      5778            0.0000000000
     36049      5938  TIP3      H1            -33.2407029445       23.8832421100      -32.2926745650  TIP3      5778            0.0000000000
     36050      5938  TIP3      H2            -32.6852134938       25.2964950303      -32.2411880032  TIP3      5778            0.0000000000
     36051      5939  TIP3      OH2           -34.2315591969       27.9713516889      -31.7134466251  TIP3      5779            0.0000000000
     36052      5939  TIP3      H1            -33.6757932509       28.0222862742      -32.5197789063  TIP3      5779            0.0000000000
     36053      5939  TIP3      H2            -34.3202999996       28.9235087422      -31.5039548500  TIP3      5779            0.0000000000
     36054      5940  TIP3      OH2           -17.4340344850       24.6547187899      -26.0669311290  TIP3      5780            0.0000000000
     36055      5940  TIP3      H1            -18.3236183663       24.8049281999      -26.4651186660  TIP3      5780            0.0000000000
     36056      5940  TIP3      H2            -17.2884711524       23.7311051908      -26.3572636489  TIP3      5780            0.0000000000
     36057      5941  TIP3      OH2           -16.4088256233       24.1050708423      -40.8401075700  TIP3      5781            0.0000000000
     36058      5941  TIP3      H1            -16.2933367070       23.1486862493      -40.9890234099  TIP3      5781            0.0000000000
     36059      5941  TIP3      H2            -15.9623877686       24.4050550356      -41.6540901688  TIP3      5781            0.0000000000
     36060      5942  TIP3      OH2           -34.5060173335       24.1607763077      -37.3081574676  TIP3      5782            0.0000000000
     36061      5942  TIP3      H1            -35.2238158118       23.4862177977      -37.3658910685  TIP3      5782            0.0000000000
     36062      5942  TIP3      H2            -34.5907868436       24.5562518598      -38.1966231434  TIP3      5782            0.0000000000
     36063      5943  TIP3      OH2           -35.0037508003       22.0494275292      -30.2299018435  TIP3      5783            0.0000000000
     36064      5943  TIP3      H1            -35.3100351402       22.3973467745      -29.3588936871  TIP3      5783            0.0000000000
     36065      5943  TIP3      H2            -34.8831954466       22.8570984427      -30.7541545476  TIP3      5783            0.0000000000
     36066      5944  TIP3      OH2           -18.0203234107       22.0188445918      -27.2755492788  TIP3      5784            0.0000000000
     36067      5944  TIP3      H1            -18.7387829168       22.4957178342      -27.7144137273  TIP3      5784            0.0000000000
     36068      5944  TIP3      H2            -17.9702404754       21.2178514193      -27.8324982641  TIP3      5784            0.0000000000
     36069      5945  TIP3      OH2           -25.5432298791       23.2188422139      -34.0366310242  TIP3      5785            0.0000000000
     36070      5945  TIP3      H1            -26.1278363151       22.6272073233      -33.4992400494  TIP3      5785            0.0000000000
     36071      5945  TIP3      H2            -24.6778065950       22.9693057042      -33.6714604391  TIP3      5785            0.0000000000
     36072      5946  TIP3      OH2           -19.4329857063       22.0634724047      -33.0600036129  TIP3      5786            0.0000000000
     36073      5946  TIP3      H1            -19.2695278118       22.5739171786      -33.8851617884  TIP3      5786            0.0000000000
     36074      5946  TIP3      H2            -20.4068056173       22.0139254924      -33.0909392939  TIP3      5786            0.0000000000
     36075      5947  TIP3      OH2           -18.2896294499       23.2764394199      -35.2036249455  TIP3      5787            0.0000000000
     36076      5947  TIP3      H1            -17.7661607264       22.4910864773      -35.5013712682  TIP3      5787            0.0000000000
     36077      5947  TIP3      H2            -17.5879980137       23.9590331859      -35.2062198574  TIP3      5787            0.0000000000
     36078      5948  TIP3      OH2           -32.3886820320       22.1680950029      -35.4932692882  TIP3      5788            0.0000000000
     36079      5948  TIP3      H1            -33.3639337103       22.1449891282      -35.3571374887  TIP3      5788            0.0000000000
     36080      5948  TIP3      H2            -32.2632523889       21.1998202635      -35.6374078748  TIP3      5788            0.0000000000
     36081      5949  TIP3      OH2           -32.9899741019       22.1581581871      -39.1427835339  TIP3      5789            0.0000000000
     36082      5949  TIP3      H1            -32.7903762080       22.9020277424      -39.7512888794  TIP3      5789            0.0000000000
     36083      5949  TIP3      H2            -33.9729890500       22.1984049783      -39.0884790549  TIP3      5789            0.0000000000
     36084      5950  TIP3      OH2           -28.0097949055       22.3547180818      -35.8630473237  TIP3      5790            0.0000000000
     36085      5950  TIP3      H1            -27.2058770085       21.9441824095      -36.2302468843  TIP3      5790            0.0000000000
     36086      5950  TIP3      H2            -27.7560052139       22.4532368860      -34.9319620225  TIP3      5790            0.0000000000
     36087      5951  TIP3      OH2           -22.1822301608       22.3067753555      -33.4936150999  TIP3      5791            0.0000000000
     36088      5951  TIP3      H1            -22.2610884383       22.4424336385      -34.4616617078  TIP3      5791            0.0000000000
     36089      5951  TIP3      H2            -22.7398795282       21.4885506370      -33.4644175357  TIP3      5791            0.0000000000
     36090      5952  TIP3      OH2           -20.5289813166       22.3661321065      -38.5557639351  TIP3      5792            0.0000000000
     36091      5952  TIP3      H1            -21.2663515648       22.5861835709      -37.9560551674  TIP3      5792            0.0000000000
     36092      5952  TIP3      H2            -20.5633695841       21.4053903016      -38.4222114256  TIP3      5792            0.0000000000
     36093      5953  TIP3      OH2           -31.8061494278       23.1173748703      -41.4130661116  TIP3      5793            0.0000000000
     36094      5953  TIP3      H1            -31.2685110208       22.3608387577      -41.7271083024  TIP3      5793            0.0000000000
     36095      5953  TIP3      H2            -31.1801464319       23.6720187914      -40.9081261635  TIP3      5793            0.0000000000
     36096      5954  TIP3      OH2           -27.5302741462       24.3274401242      -38.3665432646  TIP3      5794            0.0000000000
     36097      5954  TIP3      H1            -26.8677063973       24.1444867446      -37.6616442464  TIP3      5794            0.0000000000
     36098      5954  TIP3      H2            -27.4964979637       25.2983493384      -38.3185380986  TIP3      5794            0.0000000000
     36099      5955  TIP3      OH2           -31.7384161294       23.2094855152      -27.0282750596  TIP3      5795            0.0000000000
     36100      5955  TIP3      H1            -31.7710702290       22.5385215400      -27.7477706764  TIP3      5795            0.0000000000
     36101      5955  TIP3      H2            -31.3383044389       22.7201215008      -26.2965786561  TIP3      5795            0.0000000000
     36102      5956  TIP3      OH2           -30.8364400099       22.1769168149      -24.2895703463  TIP3      5796            0.0000000000
     36103      5956  TIP3      H1            -29.9545773302       22.0417676307      -24.6773923601  TIP3      5796            0.0000000000
     36104      5956  TIP3      H2            -30.8890464305       21.3195118791      -23.8032236179  TIP3      5796            0.0000000000
     36105      5957  TIP3      OH2           -21.6792553219       21.3722562073      -24.1042399692  TIP3      5797            0.0000000000
     36106      5957  TIP3      H1            -21.8047525565       20.9061580050      -23.2567835971  TIP3      5797            0.0000000000
     36107      5957  TIP3      H2            -20.7316791366       21.1782489728      -24.2733806828  TIP3      5797            0.0000000000
     36108      5958  TIP3      OH2            -4.4512942525       31.4888886277      -35.4605587363  TIP3      5798            0.0000000000
     36109      5958  TIP3      H1             -5.0040832707       32.2824060366      -35.6080151738  TIP3      5798            0.0000000000
     36110      5958  TIP3      H2             -4.8247120732       30.8523831520      -36.1003934086  TIP3      5798            0.0000000000
     36111      5959  TIP3      OH2            -5.4361741056       30.1785907291      -31.9236571897  TIP3      5799            0.0000000000
     36112      5959  TIP3      H1             -5.3943342863       30.1393074287      -30.9461897254  TIP3      5799            0.0000000000
     36113      5959  TIP3      H2             -6.2972935088       30.5976644305      -32.0662899822  TIP3      5799            0.0000000000
     36114      5960  TIP3      OH2           -13.6023921098       29.6166046691      -30.9695238659  TIP3      5800            0.0000000000
     36115      5960  TIP3      H1            -13.3812873832       28.9310627360      -30.2991170566  TIP3      5800            0.0000000000
     36116      5960  TIP3      H2            -13.1329301652       30.3792815254      -30.5734546626  TIP3      5800            0.0000000000
     36117      5961  TIP3      OH2            -2.1082888627       33.5335112613      -33.3142205130  TIP3      5801            0.0000000000
     36118      5961  TIP3      H1             -2.4211923581       32.6968772637      -32.9404385340  TIP3      5801            0.0000000000
     36119      5961  TIP3      H2             -1.4495348712       33.7501150487      -32.6329871917  TIP3      5801            0.0000000000
     36120      5962  TIP3      OH2           -12.3302201768       34.5084081076      -32.1161579404  TIP3      5802            0.0000000000
     36121      5962  TIP3      H1            -12.4916262710       33.9066572543      -31.3659314883  TIP3      5802            0.0000000000
     36122      5962  TIP3      H2            -11.5123094844       34.1244243706      -32.5032256280  TIP3      5802            0.0000000000
     36123      5963  TIP3      OH2           -15.6278410032       28.1898457477      -36.8284526408  TIP3      5803            0.0000000000
     36124      5963  TIP3      H1            -15.9856630399       29.0408607610      -36.5115049803  TIP3      5803            0.0000000000
     36125      5963  TIP3      H2            -16.1140746160       28.1265081130      -37.6682635937  TIP3      5803            0.0000000000
     36126      5964  TIP3      OH2           -14.7068759818       30.6318534623      -34.5438678339  TIP3      5804            0.0000000000
     36127      5964  TIP3      H1            -13.9736908359       29.9874191230      -34.4536916349  TIP3      5804            0.0000000000
     36128      5964  TIP3      H2            -14.1797301254       31.4204730582      -34.2965430134  TIP3      5804            0.0000000000
     36129      5965  TIP3      OH2            -7.4932549982       33.8065267429      -31.9641927578  TIP3      5805            0.0000000000
     36130      5965  TIP3      H1             -7.1326043994       33.0718235468      -32.4747538270  TIP3      5805            0.0000000000
     36131      5965  TIP3      H2             -6.7973429035       33.7964875427      -31.2553663595  TIP3      5805            0.0000000000
     36132      5966  TIP3      OH2             1.4004191717       24.6491517630      -31.9687739852  TIP3      5806            0.0000000000
     36133      5966  TIP3      H1              1.5507600829       25.0548112677      -31.1005495336  TIP3      5806            0.0000000000
     36134      5966  TIP3      H2              2.1957472838       24.8940185266      -32.4729010063  TIP3      5806            0.0000000000
     36135      5967  TIP3      OH2            -3.8637708903       27.3969836613      -31.1295548993  TIP3      5807            0.0000000000
     36136      5967  TIP3      H1             -3.2821544042       26.6600431144      -31.3780583834  TIP3      5807            0.0000000000
     36137      5967  TIP3      H2             -4.2123899988       27.6600346610      -32.0139331427  TIP3      5807            0.0000000000
     36138      5968  TIP3      OH2           -10.7240932399       25.3701672306      -34.3853849127  TIP3      5808            0.0000000000
     36139      5968  TIP3      H1            -10.4790561324       26.2115286142      -34.8268460494  TIP3      5808            0.0000000000
     36140      5968  TIP3      H2            -11.0260984274       24.8645989408      -35.1710535188  TIP3      5808            0.0000000000
     36141      5969  TIP3      OH2            -3.4189573960       25.5024405092      -35.5833892397  TIP3      5809            0.0000000000
     36142      5969  TIP3      H1             -2.6611682575       25.3113162837      -34.9960153662  TIP3      5809            0.0000000000
     36143      5969  TIP3      H2             -3.3022977336       26.4623709027      -35.7607819322  TIP3      5809            0.0000000000
     36144      5970  TIP3      OH2           -14.5041435984       27.5468146636      -33.7566827897  TIP3      5810            0.0000000000
     36145      5970  TIP3      H1            -13.9609247995       28.0670796121      -33.1311304371  TIP3      5810            0.0000000000
     36146      5970  TIP3      H2            -14.0196604410       27.8026012231      -34.5587888146  TIP3      5810            0.0000000000
     36147      5971  TIP3      OH2            -8.8886876312       29.7817787747      -34.2479591843  TIP3      5811            0.0000000000
     36148      5971  TIP3      H1             -8.1449057573       29.1799489200      -34.0416853981  TIP3      5811            0.0000000000
     36149      5971  TIP3      H2             -9.6438152600       29.2407055231      -33.9226089739  TIP3      5811            0.0000000000
     36150      5972  TIP3      OH2             1.3616223895       25.8956805916      -29.2149451226  TIP3      5812            0.0000000000
     36151      5972  TIP3      H1              0.7334583019       26.6374624377      -29.3755588897  TIP3      5812            0.0000000000
     36152      5972  TIP3      H2              1.9229455027       26.2769982992      -28.5241647027  TIP3      5812            0.0000000000
     36153      5973  TIP3      OH2           -11.8581228137       24.1394829735      -30.3841715613  TIP3      5813            0.0000000000
     36154      5973  TIP3      H1            -12.5660928397       24.7715196662      -30.5916463582  TIP3      5813            0.0000000000
     36155      5973  TIP3      H2            -11.9675996155       24.0780583649      -29.4158752017  TIP3      5813            0.0000000000
     36156      5974  TIP3      OH2            -5.1154853342       34.0637897901      -36.4346635975  TIP3      5814            0.0000000000
     36157      5974  TIP3      H1             -4.9469016205       33.5728117606      -37.2421943506  TIP3      5814            0.0000000000
     36158      5974  TIP3      H2             -4.6188705887       34.8896625156      -36.5526092793  TIP3      5814            0.0000000000
     36159      5975  TIP3      OH2            -8.6862804135       32.4489910535      -29.5278192031  TIP3      5815            0.0000000000
     36160      5975  TIP3      H1             -9.6644004000       32.4840777199      -29.5764812866  TIP3      5815            0.0000000000
     36161      5975  TIP3      H2             -8.4331754246       33.0960083372      -30.2018985723  TIP3      5815            0.0000000000
     36162      5976  TIP3      OH2            -1.4578767696       25.2435089905      -33.7599930282  TIP3      5816            0.0000000000
     36163      5976  TIP3      H1             -1.9365853486       24.6893207888      -33.1285514088  TIP3      5816            0.0000000000
     36164      5976  TIP3      H2             -1.1210782074       25.9286972171      -33.1501875360  TIP3      5816            0.0000000000
     36165      5977  TIP3      OH2           -12.4396695752       26.8005470484      -31.9161458301  TIP3      5817            0.0000000000
     36166      5977  TIP3      H1            -12.0567115992       27.3726882490      -31.2188379533  TIP3      5817            0.0000000000
     36167      5977  TIP3      H2            -12.2422186450       27.3800818275      -32.6985460403  TIP3      5817            0.0000000000
     36168      5978  TIP3      OH2           -11.0410754268       34.8610616796      -29.3458420366  TIP3      5818            0.0000000000
     36169      5978  TIP3      H1            -11.4560688258       35.5001410707      -28.7190292704  TIP3      5818            0.0000000000
     36170      5978  TIP3      H2            -11.6022117938       34.0667327958      -29.2350419859  TIP3      5818            0.0000000000
     36171      5979  TIP3      OH2           -14.7986099190       33.4249579346      -38.2602050622  TIP3      5819            0.0000000000
     36172      5979  TIP3      H1            -15.1714738306       33.1408697591      -39.1205388402  TIP3      5819            0.0000000000
     36173      5979  TIP3      H2            -14.5920039577       34.3571411168      -38.4579486679  TIP3      5819            0.0000000000
     36174      5980  TIP3      OH2            -0.7077844793       23.2930327560      -30.2113274013  TIP3      5820            0.0000000000
     36175      5980  TIP3      H1             -1.3798791429       23.8124414014      -30.6860910088  TIP3      5820            0.0000000000
     36176      5980  TIP3      H2             -0.0334471395       23.1836273725      -30.9114852457  TIP3      5820            0.0000000000
     36177      5981  TIP3      OH2            -8.3337220580       22.0888446649      -32.9129164054  TIP3      5821            0.0000000000
     36178      5981  TIP3      H1             -8.4529414428       21.1793962071      -33.2302328140  TIP3      5821            0.0000000000
     36179      5981  TIP3      H2             -9.2346409533       22.2348516392      -32.5265000975  TIP3      5821            0.0000000000
     36180      5982  TIP3      OH2            -0.2227270020       33.9183923645      -27.9490387555  TIP3      5822            0.0000000000
     36181      5982  TIP3      H1              0.2734159890       33.2842751415      -28.5100910419  TIP3      5822            0.0000000000
     36182      5982  TIP3      H2             -1.0165969661       34.0366507459      -28.5389523112  TIP3      5822            0.0000000000
     36183      5983  TIP3      OH2            -5.5892197615       30.7864938749      -38.1003524451  TIP3      5823            0.0000000000
     36184      5983  TIP3      H1             -6.3454805429       30.6664073512      -38.7024104281  TIP3      5823            0.0000000000
     36185      5983  TIP3      H2             -4.8149952364       30.8348710188      -38.6871642980  TIP3      5823            0.0000000000
     36186      5984  TIP3      OH2            -5.6558760877       29.3269503666      -40.9041086938  TIP3      5824            0.0000000000
     36187      5984  TIP3      H1             -4.9982367942       29.7839131417      -40.3577595068  TIP3      5824            0.0000000000
     36188      5984  TIP3      H2             -5.0757001343       28.8154963951      -41.4939349462  TIP3      5824            0.0000000000
     36189      5985  TIP3      OH2             1.7892478653       29.9833686955      -30.2998600730  TIP3      5825            0.0000000000
     36190      5985  TIP3      H1              1.0470491979       30.6243902473      -30.1757310780  TIP3      5825            0.0000000000
     36191      5985  TIP3      H2              2.4811517523       30.5492972583      -30.6962674454  TIP3      5825            0.0000000000
     36192      5986  TIP3      OH2            -2.0504415808       31.2080091429      -36.8448788352  TIP3      5826            0.0000000000
     36193      5986  TIP3      H1             -2.9045232756       31.4689696169      -36.4393369312  TIP3      5826            0.0000000000
     36194      5986  TIP3      H2             -1.6479666748       30.7950980096      -36.0726825578  TIP3      5826            0.0000000000
     36195      5987  TIP3      OH2            -2.4469247779       28.9619918352      -28.0814726727  TIP3      5827            0.0000000000
     36196      5987  TIP3      H1             -2.4648574191       29.5017571350      -27.2619737863  TIP3      5827            0.0000000000
     36197      5987  TIP3      H2             -2.9945067699       29.5130951832      -28.6681312385  TIP3      5827            0.0000000000
     36198      5988  TIP3      OH2           -10.4418268833       31.6859664760      -35.2157325676  TIP3      5828            0.0000000000
     36199      5988  TIP3      H1            -10.9095365250       31.1853452528      -35.9106806167  TIP3      5828            0.0000000000
     36200      5988  TIP3      H2             -9.9886110778       30.9070035353      -34.8043918573  TIP3      5828            0.0000000000
     36201      5989  TIP3      OH2            -9.9654305472       33.8735206591      -33.1456896396  TIP3      5829            0.0000000000
     36202      5989  TIP3      H1             -9.8613090884       33.3132208599      -33.9285558572  TIP3      5829            0.0000000000
     36203      5989  TIP3      H2             -9.0639991971       33.8098969348      -32.7547148501  TIP3      5829            0.0000000000
     36204      5990  TIP3      OH2            -9.6713452234       30.3636267707      -31.5820311353  TIP3      5830            0.0000000000
     36205      5990  TIP3      H1            -10.0344265139       30.2890212336      -32.4773513509  TIP3      5830            0.0000000000
     36206      5990  TIP3      H2            -10.2884687349       30.9991143211      -31.1505212417  TIP3      5830            0.0000000000
     36207      5991  TIP3      OH2           -10.2585737782       34.2630153416      -26.6886841511  TIP3      5831            0.0000000000
     36208      5991  TIP3      H1            -10.7075534417       35.1433482473      -26.7299898452  TIP3      5831            0.0000000000
     36209      5991  TIP3      H2            -10.5521341215       33.9116810673      -27.5467415831  TIP3      5831            0.0000000000
     36210      5992  TIP3      OH2            -3.0865692218       30.2363235170      -39.2625432138  TIP3      5832            0.0000000000
     36211      5992  TIP3      H1             -2.8666230561       30.4019922972      -38.3185400326  TIP3      5832            0.0000000000
     36212      5992  TIP3      H2             -2.4489808922       30.8773672539      -39.6466533757  TIP3      5832            0.0000000000
     36213      5993  TIP3      OH2           -12.7922716212       30.9523333004      -26.9042548192  TIP3      5833            0.0000000000
     36214      5993  TIP3      H1            -12.2846445476       31.7566418199      -27.1098727792  TIP3      5833            0.0000000000
     36215      5993  TIP3      H2            -12.8996700341       30.6466000348      -27.8188276343  TIP3      5833            0.0000000000
     36216      5994  TIP3      OH2             0.3159850787       21.5802665948      -39.4232866130  TIP3      5834            0.0000000000
     36217      5994  TIP3      H1             -0.6089883245       21.7104032929      -39.1415395030  TIP3      5834            0.0000000000
     36218      5994  TIP3      H2              0.5468165672       22.4952159971      -39.7027532065  TIP3      5834            0.0000000000
     36219      5995  TIP3      OH2           -11.6313737214       30.0824380022      -37.3823902493  TIP3      5835            0.0000000000
     36220      5995  TIP3      H1            -11.7462535558       30.9364034151      -37.8696202741  TIP3      5835            0.0000000000
     36221      5995  TIP3      H2            -12.1891402916       29.5337385074      -37.9506116997  TIP3      5835            0.0000000000
     36222      5996  TIP3      OH2           -15.0521833368       31.6100103427      -29.3095059961  TIP3      5836            0.0000000000
     36223      5996  TIP3      H1            -15.5463977009       32.4234653439      -29.4867804571  TIP3      5836            0.0000000000
     36224      5996  TIP3      H2            -14.8903362362       31.7480190059      -28.3631124816  TIP3      5836            0.0000000000
     36225      5997  TIP3      OH2            -0.4021701337       28.0007424385      -26.3439648763  TIP3      5837            0.0000000000
     36226      5997  TIP3      H1             -1.1328405236       28.1904663254      -26.9641901522  TIP3      5837            0.0000000000
     36227      5997  TIP3      H2             -0.1860412772       27.0789600133      -26.5872572159  TIP3      5837            0.0000000000
     36228      5998  TIP3      OH2           -13.5065329077       33.7460412497      -27.7412015227  TIP3      5838            0.0000000000
     36229      5998  TIP3      H1            -13.2620036330       33.8505679255      -26.8028607210  TIP3      5838            0.0000000000
     36230      5998  TIP3      H2            -14.4229945775       34.0986806912      -27.7846507753  TIP3      5838            0.0000000000
     36231      5999  TIP3      OH2           -10.6275933760       22.5561551234      -31.9766948629  TIP3      5839            0.0000000000
     36232      5999  TIP3      H1            -11.5494464203       22.6746570941      -32.2986482054  TIP3      5839            0.0000000000
     36233      5999  TIP3      H2            -10.7227030079       23.0498625416      -31.1309014280  TIP3      5839            0.0000000000
     36234      6000  TIP3      OH2            -5.5971989123       22.2585207884      -28.5389331534  TIP3      5840            0.0000000000
     36235      6000  TIP3      H1             -5.0952041907       21.7499837822      -27.8516957108  TIP3      5840            0.0000000000
     36236      6000  TIP3      H2             -6.5254444773       21.9757175829      -28.4533649661  TIP3      5840            0.0000000000
     36237      6001  TIP3      OH2            -2.8863484510       26.2958662982      -28.0226044520  TIP3      5841            0.0000000000
     36238      6001  TIP3      H1             -3.3262192347       26.0299384915      -27.1837583633  TIP3      5841            0.0000000000
     36239      6001  TIP3      H2             -3.1811981782       27.2273598218      -28.1571450028  TIP3      5841            0.0000000000
     36240      6002  TIP3      OH2            -1.6610531505       30.9127082290      -41.5893904309  TIP3      5842            0.0000000000
     36241      6002  TIP3      H1             -1.8550558510       31.4718857429      -42.3566107640  TIP3      5842            0.0000000000
     36242      6002  TIP3      H2             -1.0260169859       31.5046605149      -41.1205141360  TIP3      5842            0.0000000000
     36243      6003  TIP3      OH2            -6.0699011709       25.6575409929      -41.1774066162  TIP3      5843            0.0000000000
     36244      6003  TIP3      H1             -6.2446719401       26.2946258116      -40.4560933444  TIP3      5843            0.0000000000
     36245      6003  TIP3      H2             -6.7482095488       25.8810833366      -41.8508513508  TIP3      5843            0.0000000000
     36246      6004  TIP3      OH2           -10.2657285827       27.8825079801      -30.5870586076  TIP3      5844            0.0000000000
     36247      6004  TIP3      H1            -10.7173840975       28.1742467424      -29.7583059749  TIP3      5844            0.0000000000
     36248      6004  TIP3      H2            -10.0092884550       28.7699013553      -30.9385692589  TIP3      5844            0.0000000000
     36249      6005  TIP3      OH2           -10.1241206401       27.5528546490      -35.8850364259  TIP3      5845            0.0000000000
     36250      6005  TIP3      H1            -10.7499229544       28.1459869219      -35.4264169310  TIP3      5845            0.0000000000
     36251      6005  TIP3      H2            -10.0330058029       28.0726739292      -36.6942907534  TIP3      5845            0.0000000000
     36252      6006  TIP3      OH2            -5.2824461837       27.5510753720      -38.7753251490  TIP3      5846            0.0000000000
     36253      6006  TIP3      H1             -5.8027483181       28.3636736508      -38.8599597943  TIP3      5846            0.0000000000
     36254      6006  TIP3      H2             -4.6063725881       27.7814073683      -38.0938686459  TIP3      5846            0.0000000000
     36255      6007  TIP3      OH2            -6.1890451281       28.6962180514      -25.5645976052  TIP3      5847            0.0000000000
     36256      6007  TIP3      H1             -6.5997819499       28.1227488479      -24.8949322954  TIP3      5847            0.0000000000
     36257      6007  TIP3      H2             -5.4866977996       29.0981963437      -25.0236838018  TIP3      5847            0.0000000000
     36258      6008  TIP3      OH2            -4.5647210564       28.0128308748      -33.6340912004  TIP3      5848            0.0000000000
     36259      6008  TIP3      H1             -4.4327881517       28.7478154226      -34.2654876356  TIP3      5848            0.0000000000
     36260      6008  TIP3      H2             -4.6880514079       27.2948660603      -34.2702913963  TIP3      5848            0.0000000000
     36261      6009  TIP3      OH2           -12.9012827400       27.7092658884      -29.3101153469  TIP3      5849            0.0000000000
     36262      6009  TIP3      H1            -12.8940927505       27.8214022104      -28.3521996519  TIP3      5849            0.0000000000
     36263      6009  TIP3      H2            -13.3252664696       26.8309654507      -29.4399803729  TIP3      5849            0.0000000000
     36264      6010  TIP3      OH2            -9.9546849490       26.1205173350      -41.7045928360  TIP3      5850            0.0000000000
     36265      6010  TIP3      H1             -9.3406612007       25.5652354783      -42.2242790499  TIP3      5850            0.0000000000
     36266      6010  TIP3      H2             -9.7399412004       27.0057725099      -42.0651680470  TIP3      5850            0.0000000000
     36267      6011  TIP3      OH2           -16.0765439796       24.7971351573      -34.6000520969  TIP3      5851            0.0000000000
     36268      6011  TIP3      H1            -15.7476953068       25.6775886986      -34.3421062008  TIP3      5851            0.0000000000
     36269      6011  TIP3      H2            -15.8865248396       24.7303067378      -35.5596506718  TIP3      5851            0.0000000000
     36270      6012  TIP3      OH2           -14.3430144755       26.0668745169      -39.4900658319  TIP3      5852            0.0000000000
     36271      6012  TIP3      H1            -14.3761794095       26.1988757220      -40.4579319646  TIP3      5852            0.0000000000
     36272      6012  TIP3      H2            -15.1482502690       26.5596973988      -39.2578739755  TIP3      5852            0.0000000000
     36273      6013  TIP3      OH2            -5.2678126927       29.1314964749      -29.4903133309  TIP3      5853            0.0000000000
     36274      6013  TIP3      H1             -4.7939464814       28.7890788927      -30.2827516981  TIP3      5853            0.0000000000
     36275      6013  TIP3      H2             -5.4608329042       28.2893164177      -29.0388442136  TIP3      5853            0.0000000000
     36276      6014  TIP3      OH2            -7.6744827168       25.0301124791      -35.2199933039  TIP3      5854            0.0000000000
     36277      6014  TIP3      H1             -8.5389428124       24.8935216088      -34.8120042626  TIP3      5854            0.0000000000
     36278      6014  TIP3      H2             -7.0270577322       24.9075904976      -34.4869077150  TIP3      5854            0.0000000000
     36279      6015  TIP3      OH2           -13.6006461599       26.6044763084      -36.1749982583  TIP3      5855            0.0000000000
     36280      6015  TIP3      H1            -14.3565726940       27.1403841875      -36.5444833087  TIP3      5855            0.0000000000
     36281      6015  TIP3      H2            -14.0102141161       26.2347332371      -35.3866081538  TIP3      5855            0.0000000000
     36282      6016  TIP3      OH2            -9.7415364030       26.7892245638      -38.6349887159  TIP3      5856            0.0000000000
     36283      6016  TIP3      H1             -8.8872757078       26.8603213065      -38.1462218884  TIP3      5856            0.0000000000
     36284      6016  TIP3      H2             -9.6894569061       27.5296516286      -39.2631249388  TIP3      5856            0.0000000000
     36285      6017  TIP3      OH2            -3.1372661787       24.6355172584      -31.7316807860  TIP3      5857            0.0000000000
     36286      6017  TIP3      H1             -3.7486198984       24.6196645310      -30.9544313543  TIP3      5857            0.0000000000
     36287      6017  TIP3      H2             -3.7990635226       24.7221401402      -32.4479330080  TIP3      5857            0.0000000000
     36288      6018  TIP3      OH2           -10.6900074377       28.7849758737      -40.8963190576  TIP3      5858            0.0000000000
     36289      6018  TIP3      H1            -11.0171444796       28.0442987041      -41.4270539466  TIP3      5858            0.0000000000
     36290      6018  TIP3      H2             -9.8468754244       28.9598645755      -41.3600521751  TIP3      5858            0.0000000000
     36291      6019  TIP3      OH2           -12.6507110720       33.3571462834      -25.1003778224  TIP3      5859            0.0000000000
     36292      6019  TIP3      H1            -11.9211832449       32.7200140157      -24.9874700556  TIP3      5859            0.0000000000
     36293      6019  TIP3      H2            -13.4335432511       32.8132045599      -24.8845871227  TIP3      5859            0.0000000000
     36294      6020  TIP3      OH2            -7.2801736469       27.9616929631      -33.2941438028  TIP3      5860            0.0000000000
     36295      6020  TIP3      H1             -6.3408425877       28.2249900655      -33.3517008566  TIP3      5860            0.0000000000
     36296      6020  TIP3      H2             -7.3604758326       27.8859586090      -32.3298704246  TIP3      5860            0.0000000000
     36297      6021  TIP3      OH2           -11.3341124291       23.5741920569      -36.4330780708  TIP3      5861            0.0000000000
     36298      6021  TIP3      H1            -11.7583864836       22.9897278477      -35.7829552348  TIP3      5861            0.0000000000
     36299      6021  TIP3      H2            -11.0661627617       22.9083181772      -37.0848727252  TIP3      5861            0.0000000000
     36300      6022  TIP3      OH2            -7.7607078268       26.9231053073      -30.7408144975  TIP3      5862            0.0000000000
     36301      6022  TIP3      H1             -8.5297315577       27.4615858568      -30.4623537421  TIP3      5862            0.0000000000
     36302      6022  TIP3      H2             -7.1742207444       26.9575781625      -29.9645927436  TIP3      5862            0.0000000000
     36303      6023  TIP3      OH2            -7.3083599716       33.3826342256      -38.8640730664  TIP3      5863            0.0000000000
     36304      6023  TIP3      H1             -7.7821255237       32.8086169352      -39.5085092428  TIP3      5863            0.0000000000
     36305      6023  TIP3      H2             -7.5684637482       33.0218369149      -37.9960121295  TIP3      5863            0.0000000000
     36306      6024  TIP3      OH2            -0.0785640457       31.8237749211      -29.7334967414  TIP3      5864            0.0000000000
     36307      6024  TIP3      H1              0.1647152209       32.5216511097      -30.3882477945  TIP3      5864            0.0000000000
     36308      6024  TIP3      H2             -1.0507826193       31.9781989489      -29.7164469156  TIP3      5864            0.0000000000
     36309      6025  TIP3      OH2            -3.4624150899       25.5655531725      -40.0674733447  TIP3      5865            0.0000000000
     36310      6025  TIP3      H1             -4.3301873899       25.8666582588      -40.4051426647  TIP3      5865            0.0000000000
     36311      6025  TIP3      H2             -3.0854753700       26.3981558523      -39.7058734787  TIP3      5865            0.0000000000
     36312      6026  TIP3      OH2            -6.1816958166       33.2514374279      -27.7613630022  TIP3      5866            0.0000000000
     36313      6026  TIP3      H1             -6.7174466521       32.4461433872      -27.7443565240  TIP3      5866            0.0000000000
     36314      6026  TIP3      H2             -6.5852015378       33.8201658519      -27.1001919053  TIP3      5866            0.0000000000
     36315      6027  TIP3      OH2            -2.0090999242       27.6439016605      -39.1624692901  TIP3      5867            0.0000000000
     36316      6027  TIP3      H1             -2.4189480673       27.8005236658      -38.2777126157  TIP3      5867            0.0000000000
     36317      6027  TIP3      H2             -1.9161280641       28.5691318480      -39.4569803711  TIP3      5867            0.0000000000
     36318      6028  TIP3      OH2           -12.7733437172       32.1287745400      -33.3969372560  TIP3      5868            0.0000000000
     36319      6028  TIP3      H1            -11.8626774546       32.1995264228      -33.7216246300  TIP3      5868            0.0000000000
     36320      6028  TIP3      H2            -12.6783871636       31.3757238658      -32.7944718681  TIP3      5868            0.0000000000
     36321      6029  TIP3      OH2            -5.7241205420       35.0870324726      -40.2505653043  TIP3      5869            0.0000000000
     36322      6029  TIP3      H1             -6.6470031933       34.9468550803      -39.9694399619  TIP3      5869            0.0000000000
     36323      6029  TIP3      H2             -5.3291183903       34.2627926893      -39.9438933940  TIP3      5869            0.0000000000
     36324      6030  TIP3      OH2           -16.1648688165       30.6258300483      -27.1019847298  TIP3      5870            0.0000000000
     36325      6030  TIP3      H1            -15.5222131559       30.0502582338      -26.6229848077  TIP3      5870            0.0000000000
     36326      6030  TIP3      H2            -16.0413269518       30.3230720319      -28.0138309601  TIP3      5870            0.0000000000
     36327      6031  TIP3      OH2            -8.8204314110       30.2615450568      -25.8256209458  TIP3      5871            0.0000000000
     36328      6031  TIP3      H1             -9.1976157381       29.4374497118      -26.1690110545  TIP3      5871            0.0000000000
     36329      6031  TIP3      H2             -7.9880755087       29.9609754204      -25.4352959318  TIP3      5871            0.0000000000
     36330      6032  TIP3      OH2             2.0681023932       27.3856991047      -39.1623843470  TIP3      5872            0.0000000000
     36331      6032  TIP3      H1              1.1687985935       27.5862737011      -39.4671496560  TIP3      5872            0.0000000000
     36332      6032  TIP3      H2              2.4003575091       28.3082072453      -39.2880637345  TIP3      5872            0.0000000000
     36333      6033  TIP3      OH2             1.9486425705       33.5341345185      -26.4509387705  TIP3      5873            0.0000000000
     36334      6033  TIP3      H1              1.0152129862       33.8194891820      -26.5087815057  TIP3      5873            0.0000000000
     36335      6033  TIP3      H2              2.1507152904       33.5053996079      -27.4121985973  TIP3      5873            0.0000000000
     36336      6034  TIP3      OH2            -2.3555359978       30.8201016323      -31.6850399961  TIP3      5874            0.0000000000
     36337      6034  TIP3      H1             -3.2643190309       31.0484825611      -31.9199186544  TIP3      5874            0.0000000000
     36338      6034  TIP3      H2             -2.1493987272       30.1408664553      -32.3626428655  TIP3      5874            0.0000000000
     36339      6035  TIP3      OH2           -14.1846187878       30.3004937909      -40.8666859887  TIP3      5875            0.0000000000
     36340      6035  TIP3      H1            -13.6480360113       31.1025774432      -40.7908425942  TIP3      5875            0.0000000000
     36341      6035  TIP3      H2            -15.0781298728       30.6100078544      -40.6847062892  TIP3      5875            0.0000000000
     36342      6036  TIP3      OH2            -8.2281339810       33.0873117056      -36.2588923367  TIP3      5876            0.0000000000
     36343      6036  TIP3      H1             -8.9143573448       33.7639270528      -36.3006968314  TIP3      5876            0.0000000000
     36344      6036  TIP3      H2             -8.7145227982       32.3260725900      -35.8931893651  TIP3      5876            0.0000000000
     36345      6037  TIP3      OH2            -5.6392826693       32.8850232067      -30.2936180528  TIP3      5877            0.0000000000
     36346      6037  TIP3      H1             -5.7135461734       33.0023315081      -29.3155683686  TIP3      5877            0.0000000000
     36347      6037  TIP3      H2             -4.6619622331       33.0510754352      -30.3564428276  TIP3      5877            0.0000000000
     36348      6038  TIP3      OH2            -2.1286138464       34.1300380677      -41.7113838604  TIP3      5878            0.0000000000
     36349      6038  TIP3      H1             -1.3234500457       34.5741736790      -41.3702791254  TIP3      5878            0.0000000000
     36350      6038  TIP3      H2             -2.7624853344       34.4789100133      -41.0776644331  TIP3      5878            0.0000000000
     36351      6039  TIP3      OH2           -14.0850753674       25.3283920119      -28.7469865471  TIP3      5879            0.0000000000
     36352      6039  TIP3      H1            -14.6021234687       25.8289332680      -28.0952395667  TIP3      5879            0.0000000000
     36353      6039  TIP3      H2            -13.5015741884       24.7921966073      -28.1702327648  TIP3      5879            0.0000000000
     36354      6040  TIP3      OH2            -1.3925903482       32.3883668705      -39.1072973657  TIP3      5880            0.0000000000
     36355      6040  TIP3      H1             -1.5945676235       31.9147763137      -38.2643736207  TIP3      5880            0.0000000000
     36356      6040  TIP3      H2             -1.1790301588       33.2559722392      -38.6953558471  TIP3      5880            0.0000000000
     36357      6041  TIP3      OH2           -12.4886901564       32.1061331622      -39.0223045478  TIP3      5881            0.0000000000
     36358      6041  TIP3      H1            -13.3119901609       32.5407765614      -38.7149777617  TIP3      5881            0.0000000000
     36359      6041  TIP3      H2            -12.1056353458       32.8316638112      -39.5562637389  TIP3      5881            0.0000000000
     36360      6042  TIP3      OH2            -4.6200149878       24.6710706461      -29.3520799523  TIP3      5882            0.0000000000
     36361      6042  TIP3      H1             -4.0008791387       25.0990658604      -28.7378174797  TIP3      5882            0.0000000000
     36362      6042  TIP3      H2             -5.0220918094       23.9505738922      -28.8203372845  TIP3      5882            0.0000000000
     36363      6043  TIP3      OH2            -4.2684664139       24.3366795868      -37.8594359353  TIP3      5883            0.0000000000
     36364      6043  TIP3      H1             -3.8265592397       24.7999148064      -38.6051259644  TIP3      5883            0.0000000000
     36365      6043  TIP3      H2             -3.8361401346       24.7706243851      -37.0782691809  TIP3      5883            0.0000000000
     36366      6044  TIP3      OH2            -7.3977094599       26.3605707770      -37.5225086210  TIP3      5884            0.0000000000
     36367      6044  TIP3      H1             -6.6168649313       26.9392410797      -37.6173971902  TIP3      5884            0.0000000000
     36368      6044  TIP3      H2             -7.5086840488       26.2611335488      -36.5496196259  TIP3      5884            0.0000000000
     36369      6045  TIP3      OH2            -6.3533828578       27.1561971417      -27.9179974071  TIP3      5885            0.0000000000
     36370      6045  TIP3      H1             -6.6978934566       27.9464321275      -27.4461856694  TIP3      5885            0.0000000000
     36371      6045  TIP3      H2             -5.5464488855       26.9694542619      -27.4143767355  TIP3      5885            0.0000000000
     36372      6046  TIP3      OH2            -6.2451320198       23.0809079874      -36.6261864084  TIP3      5886            0.0000000000
     36373      6046  TIP3      H1             -6.5493338029       23.6839167785      -35.9077646443  TIP3      5886            0.0000000000
     36374      6046  TIP3      H2             -5.5660700519       23.6624724208      -37.0441466816  TIP3      5886            0.0000000000
     36375      6047  TIP3      OH2           -10.5434597860       24.3216181729      -39.5994931882  TIP3      5887            0.0000000000
     36376      6047  TIP3      H1            -10.2627406794       25.0625675814      -40.1715472440  TIP3      5887            0.0000000000
     36377      6047  TIP3      H2             -9.7344133305       24.2407810923      -39.0430913337  TIP3      5887            0.0000000000
     36378      6048  TIP3      OH2            -0.5502551029       25.2064708358      -27.2865248545  TIP3      5888            0.0000000000
     36379      6048  TIP3      H1             -1.3855971523       25.5746726845      -27.6496735187  TIP3      5888            0.0000000000
     36380      6048  TIP3      H2             -0.0546352224       25.0309901308      -28.1080323021  TIP3      5888            0.0000000000
     36381      6049  TIP3      OH2            -1.7259261520       29.0631362613      -33.5408574694  TIP3      5889            0.0000000000
     36382      6049  TIP3      H1             -2.5387702832       28.7129210661      -33.9286856318  TIP3      5889            0.0000000000
     36383      6049  TIP3      H2             -1.4059847620       28.2888388864      -33.0203386327  TIP3      5889            0.0000000000
     36384      6050  TIP3      OH2           -12.2041034963       34.5905548921      -40.4928336085  TIP3      5890            0.0000000000
     36385      6050  TIP3      H1            -12.3116293588       35.5624395205      -40.5335515820  TIP3      5890            0.0000000000
     36386      6050  TIP3      H2            -11.5418878375       34.4093324560      -41.1958748592  TIP3      5890            0.0000000000
     36387      6051  TIP3      OH2           -13.8082811633       27.7364672515      -41.7906108993  TIP3      5891            0.0000000000
     36388      6051  TIP3      H1            -13.6807614989       28.4982042745      -41.1878548521  TIP3      5891            0.0000000000
     36389      6051  TIP3      H2            -14.4590384090       28.1413105469      -42.4002254132  TIP3      5891            0.0000000000
     36390      6052  TIP3      OH2           -13.2315334659       22.5094544296      -32.4644065312  TIP3      5892            0.0000000000
     36391      6052  TIP3      H1            -13.4787591594       22.2297494248      -33.3798342792  TIP3      5892            0.0000000000
     36392      6052  TIP3      H2            -13.3243955989       21.6630762869      -31.9681488481  TIP3      5892            0.0000000000
     36393      6053  TIP3      OH2           -15.1579729388       32.6164547524      -24.2831241124  TIP3      5893            0.0000000000
     36394      6053  TIP3      H1            -15.2556836810       31.6894503291      -24.5581451129  TIP3      5893            0.0000000000
     36395      6053  TIP3      H2            -15.7403987462       33.0913465801      -24.9086619460  TIP3      5893            0.0000000000
     36396      6054  TIP3      OH2           -10.6250746273       33.7273929889      -42.5889410117  TIP3      5894            0.0000000000
     36397      6054  TIP3      H1            -10.1238396932       33.1878271329      -41.9304333353  TIP3      5894            0.0000000000
     36398      6054  TIP3      H2            -10.1785284275       33.4123811181      -43.3922141363  TIP3      5894            0.0000000000
     36399      6055  TIP3      OH2            -8.2015430198       32.7852658174      -25.6291548396  TIP3      5895            0.0000000000
     36400      6055  TIP3      H1             -8.9804986978       33.2443165579      -26.0320790507  TIP3      5895            0.0000000000
     36401      6055  TIP3      H2             -8.4359598594       31.8295778985      -25.7515676777  TIP3      5895            0.0000000000
     36402      6056  TIP3      OH2            -2.2666875867       33.2017041657      -26.1450892276  TIP3      5896            0.0000000000
     36403      6056  TIP3      H1             -1.5304940176       33.3680161147      -26.7598143202  TIP3      5896            0.0000000000
     36404      6056  TIP3      H2             -3.0104979576       33.2143256904      -26.7730515987  TIP3      5896            0.0000000000
     36405      6057  TIP3      OH2           -14.7977983710       29.9354479743      -24.9572889154  TIP3      5897            0.0000000000
     36406      6057  TIP3      H1            -13.9948715404       30.4369753355      -25.1782242521  TIP3      5897            0.0000000000
     36407      6057  TIP3      H2            -14.7249711349       29.7874987343      -23.9968079784  TIP3      5897            0.0000000000
     36408      6058  TIP3      OH2            -8.9140649139       29.9369142257      -38.9145882597  TIP3      5898            0.0000000000
     36409      6058  TIP3      H1             -9.8848137161       30.0040910903      -38.9343251319  TIP3      5898            0.0000000000
     36410      6058  TIP3      H2             -8.7221116800       30.4623861907      -39.7195774007  TIP3      5898            0.0000000000
     36411      6059  TIP3      OH2           -10.1016014128       29.0194474526      -28.1216332188  TIP3      5899            0.0000000000
     36412      6059  TIP3      H1            -10.6361671989       29.8014354619      -27.9189064819  TIP3      5899            0.0000000000
     36413      6059  TIP3      H2             -9.3142923534       29.4662999982      -28.5190843394  TIP3      5899            0.0000000000
     36414      6060  TIP3      OH2            -8.1666083808       28.7597426398      -41.9867239407  TIP3      5900            0.0000000000
     36415      6060  TIP3      H1             -8.3339110302       29.4975736620      -42.5847807042  TIP3      5900            0.0000000000
     36416      6060  TIP3      H2             -7.2765588047       28.9937649663      -41.6247962882  TIP3      5900            0.0000000000
     36417      6061  TIP3      OH2            -4.7790501353       31.3149207958      -23.9187551230  TIP3      5901            0.0000000000
     36418      6061  TIP3      H1             -4.0146563134       31.4423851324      -23.3258876113  TIP3      5901            0.0000000000
     36419      6061  TIP3      H2             -5.5014552341       31.2118510674      -23.2798203366  TIP3      5901            0.0000000000
     36420      6062  TIP3      OH2             0.9088715742       32.2107123196       43.0271365707  TIP3      5902            0.0000000000
     36421      6062  TIP3      H1              0.8240818134       32.6677201974       42.1806659285  TIP3      5902            0.0000000000
     36422      6062  TIP3      H2              1.1648698957       32.9314430698       43.6345970923  TIP3      5902            0.0000000000
     36423      6063  TIP3      OH2            -9.5020150671       26.4793937953      -26.8279724044  TIP3      5903            0.0000000000
     36424      6063  TIP3      H1            -10.2939745829       25.9167433442      -26.9820588154  TIP3      5903            0.0000000000
     36425      6063  TIP3      H2             -9.5233134366       27.1259259267      -27.5588220358  TIP3      5903            0.0000000000
     36426      6064  TIP3      OH2            -9.1742411980       24.3087979453      -29.3499949019  TIP3      5904            0.0000000000
     36427      6064  TIP3      H1             -8.7146394173       25.0946619373      -29.0160155043  TIP3      5904            0.0000000000
     36428      6064  TIP3      H2             -9.8493140070       24.1594550471      -28.6514392250  TIP3      5904            0.0000000000
     36429      6065  TIP3      OH2            -7.7707278139       29.8911926434      -28.9229752955  TIP3      5905            0.0000000000
     36430      6065  TIP3      H1             -6.7983073611       29.8450587491      -29.0277453341  TIP3      5905            0.0000000000
     36431      6065  TIP3      H2             -7.9891020846       30.7770403217      -29.2766007733  TIP3      5905            0.0000000000
     36432      6066  TIP3      OH2            -3.4904090584       27.5480803862      -24.1333861690  TIP3      5906            0.0000000000
     36433      6066  TIP3      H1             -2.9957860555       26.9749859391      -23.5267646527  TIP3      5906            0.0000000000
     36434      6066  TIP3      H2             -2.9587963247       28.3554856957      -24.1965962644  TIP3      5906            0.0000000000
     36435      6067  TIP3      OH2            -1.9508796529       30.5007603262      -25.8497898867  TIP3      5907            0.0000000000
     36436      6067  TIP3      H1             -2.0116142057       31.4534638958      -26.0893403966  TIP3      5907            0.0000000000
     36437      6067  TIP3      H2             -0.9864990639       30.3630022302      -25.9280270473  TIP3      5907            0.0000000000
     36438      6068  TIP3      OH2           -11.4470790046       27.4708500878      -24.7255295685  TIP3      5908            0.0000000000
     36439      6068  TIP3      H1            -12.3420745831       27.1908629214      -24.4395780307  TIP3      5908            0.0000000000
     36440      6068  TIP3      H2            -11.2918017464       26.9618788407      -25.5274989435  TIP3      5908            0.0000000000
     36441      6069  TIP3      OH2            -8.2305290183       21.6962838415      -29.1510695569  TIP3      5909            0.0000000000
     36442      6069  TIP3      H1             -8.4061382510       22.6533620326      -29.2820506779  TIP3      5909            0.0000000000
     36443      6069  TIP3      H2             -9.1282966821       21.3314018541      -29.1566209640  TIP3      5909            0.0000000000
     36444      6070  TIP3      OH2            -7.4397329529       26.0118479036      -24.8455770322  TIP3      5910            0.0000000000
     36445      6070  TIP3      H1             -8.2475672285       25.9524948582      -24.2946972903  TIP3      5910            0.0000000000
     36446      6070  TIP3      H2             -7.8700195380       26.1101763077      -25.7163160016  TIP3      5910            0.0000000000
     36447      6071  TIP3      OH2            -4.5355563187       25.6521903680      -25.9629283537  TIP3      5911            0.0000000000
     36448      6071  TIP3      H1             -5.3374818965       26.1607228571      -25.7619823645  TIP3      5911            0.0000000000
     36449      6071  TIP3      H2             -3.9936586415       25.9044232497      -25.1843024309  TIP3      5911            0.0000000000
     36450      6072  TIP3      OH2            -3.0420200692       24.2828883390      -23.7909412255  TIP3      5912            0.0000000000
     36451      6072  TIP3      H1             -2.9936907574       23.3175679550      -23.6135882584  TIP3      5912            0.0000000000
     36452      6072  TIP3      H2             -3.2944899720       24.6425894563      -22.9086532898  TIP3      5912            0.0000000000
     36453      6073  TIP3      OH2           -13.5671435101       25.3362698967      -24.9175129737  TIP3      5913            0.0000000000
     36454      6073  TIP3      H1            -12.8992640150       24.8781646919      -25.4652402283  TIP3      5913            0.0000000000
     36455      6073  TIP3      H2            -13.2717451217       25.1484818247      -23.9987076383  TIP3      5913            0.0000000000
     36456      6074  TIP3      OH2            -8.5071898273       21.6142751602      -26.3388991604  TIP3      5914            0.0000000000
     36457      6074  TIP3      H1             -7.7905853576       20.9443843837      -26.3389289113  TIP3      5914            0.0000000000
     36458      6074  TIP3      H2             -8.5885594498       21.7801366754      -27.2924864251  TIP3      5914            0.0000000000
     36459      6075  TIP3      OH2            -8.4821305166       23.0933344197      -24.0739143023  TIP3      5915            0.0000000000
     36460      6075  TIP3      H1             -8.6320459810       22.4708995603      -24.8212750151  TIP3      5915            0.0000000000
     36461      6075  TIP3      H2             -9.2925651940       23.6284693608      -24.1304464338  TIP3      5915            0.0000000000
     36462      6076  TIP3      OH2           -14.7228568220       33.6283890769      -41.1093528031  TIP3      5916            0.0000000000
     36463      6076  TIP3      H1            -13.9299100602       34.0700178961      -40.7216920090  TIP3      5916            0.0000000000
     36464      6076  TIP3      H2            -14.8697640582       34.2277418568      -41.8635485581  TIP3      5916            0.0000000000
     36465      6077  TIP3      OH2             0.2157978171       34.0314299926      -23.5967794814  TIP3      5917            0.0000000000
     36466      6077  TIP3      H1             -0.6819158201       34.2336165779      -23.2725268963  TIP3      5917            0.0000000000
     36467      6077  TIP3      H2              0.7212688123       34.5550975226      -22.9433114001  TIP3      5917            0.0000000000
     36468      6078  TIP3      OH2             1.5087351283       32.4087792175      -38.3516496872  TIP3      5918            0.0000000000
     36469      6078  TIP3      H1              1.4635654823       33.2981085102      -37.9604380859  TIP3      5918            0.0000000000
     36470      6078  TIP3      H2              1.0165141630       31.8752695442      -37.6966068681  TIP3      5918            0.0000000000
     36471      6079  TIP3      OH2             1.8530173157       30.7513018478      -36.2473654831  TIP3      5919            0.0000000000
     36472      6079  TIP3      H1              1.0788571692       30.7314523222      -35.6660655503  TIP3      5919            0.0000000000
     36473      6079  TIP3      H2              2.5578285709       31.2376322469      -35.7477027066  TIP3      5919            0.0000000000
     36474      6080  TIP3      OH2             0.8433028004       33.7621353797      -31.4757623758  TIP3      5920            0.0000000000
     36475      6080  TIP3      H1              1.6233000081       33.2347357482      -31.7262147930  TIP3      5920            0.0000000000
     36476      6080  TIP3      H2              1.2580776354       34.6312952624      -31.3541622685  TIP3      5920            0.0000000000
     36477      6081  TIP3      OH2             1.5502311213       29.8502050616      -39.8820554032  TIP3      5921            0.0000000000
     36478      6081  TIP3      H1              1.3597820019       30.2960328920      -40.7211636549  TIP3      5921            0.0000000000
     36479      6081  TIP3      H2              1.5999806060       30.6369797389      -39.2965396139  TIP3      5921            0.0000000000
     36480      6082  TIP3      OH2             0.0353424296       27.4941528307      -41.4833002670  TIP3      5922            0.0000000000
     36481      6082  TIP3      H1              0.2714256938       28.2818788166      -42.0002467191  TIP3      5922            0.0000000000
     36482      6082  TIP3      H2              0.9258411136       27.1067724569      -41.4582208994  TIP3      5922            0.0000000000
     36483      6083  TIP3      OH2            -0.3472468374       29.1874926949      -35.7590351610  TIP3      5923            0.0000000000
     36484      6083  TIP3      H1             -0.9680758736       28.9619631801      -36.4760220068  TIP3      5923            0.0000000000
     36485      6083  TIP3      H2             -0.9799183268       29.2816644946      -35.0249133095  TIP3      5923            0.0000000000
     36486      6084  TIP3      OH2           -15.5730355036       31.4858034511      -32.1118665095  TIP3      5924            0.0000000000
     36487      6084  TIP3      H1            -15.2278957046       31.0767298454      -32.9419196098  TIP3      5924            0.0000000000
     36488      6084  TIP3      H2            -14.8506948689       31.2615769793      -31.4893481684  TIP3      5924            0.0000000000
     36489      6085  TIP3      OH2             0.7065402864       31.0289355130      -26.3958156771  TIP3      5925            0.0000000000
     36490      6085  TIP3      H1              1.6063072396       30.6430834058      -26.4418413779  TIP3      5925            0.0000000000
     36491      6085  TIP3      H2              0.9221146974       31.9207943716      -26.7201905564  TIP3      5925            0.0000000000
     36492      6086  TIP3      OH2             2.1036236015       28.8172638525      -25.8923142175  TIP3      5926            0.0000000000
     36493      6086  TIP3      H1              1.1454016294       28.8316100354      -26.1269632879  TIP3      5926            0.0000000000
     36494      6086  TIP3      H2              2.2902290270       27.8716113491      -26.0653384288  TIP3      5926            0.0000000000
     36495      6087  TIP3      OH2             0.1160769498       24.7797937168       42.1229774662  TIP3      5927            0.0000000000
     36496      6087  TIP3      H1              0.9266055312       25.3140171051       42.2290993655  TIP3      5927            0.0000000000
     36497      6087  TIP3      H2              0.2136213849       24.2390049426       42.9426509469  TIP3      5927            0.0000000000
     36498      6088  TIP3      OH2            -0.0939666177       26.7064834280      -37.3955789640  TIP3      5928            0.0000000000
     36499      6088  TIP3      H1             -0.2230795523       25.7344149452      -37.3609724046  TIP3      5928            0.0000000000
     36500      6088  TIP3      H2             -0.5263644124       26.9482660147      -38.2332759624  TIP3      5928            0.0000000000
     36501      6089  TIP3      OH2            -0.6276122074       27.1771951464      -32.1187966180  TIP3      5929            0.0000000000
     36502      6089  TIP3      H1              0.3407060029       27.0597740985      -32.1365768010  TIP3      5929            0.0000000000
     36503      6089  TIP3      H2             -0.7769395444       27.4330239214      -31.1881787470  TIP3      5929            0.0000000000
     36504      6090  TIP3      OH2            -0.2993949355       28.0496727352      -29.5814230997  TIP3      5930            0.0000000000
     36505      6090  TIP3      H1             -1.2011276422       28.2619700423      -29.2470477156  TIP3      5930            0.0000000000
     36506      6090  TIP3      H2              0.1332383790       28.9189665558      -29.4622420772  TIP3      5930            0.0000000000
     36507      6091  TIP3      OH2           -15.7158392237       26.7072902531      -25.8101945963  TIP3      5931            0.0000000000
     36508      6091  TIP3      H1            -14.9234560478       26.2977759434      -25.3970610910  TIP3      5931            0.0000000000
     36509      6091  TIP3      H2            -16.3197795642       25.9378965168      -25.8430697062  TIP3      5931            0.0000000000
     36510      6092  TIP3      OH2             2.6164966437       22.2876481640      -23.7693459011  TIP3      5932            0.0000000000
     36511      6092  TIP3      H1              3.0328919430       21.7529286605      -24.4666833474  TIP3      5932            0.0000000000
     36512      6092  TIP3      H2              2.1654697496       22.9533051418      -24.3357663385  TIP3      5932            0.0000000000
     36513      6093  TIP3      OH2            -0.2843206038       24.0147470946      -37.4979008034  TIP3      5933            0.0000000000
     36514      6093  TIP3      H1              0.2182860557       23.4875816376      -36.8406548666  TIP3      5933            0.0000000000
     36515      6093  TIP3      H2             -0.9927977495       23.3975176735      -37.7692629227  TIP3      5933            0.0000000000
     36516      6094  TIP3      OH2           -14.4908372928       24.8028566523      -31.9950578426  TIP3      5934            0.0000000000
     36517      6094  TIP3      H1            -13.8905259070       24.0326984760      -32.1213235776  TIP3      5934            0.0000000000
     36518      6094  TIP3      H2            -13.9018312495       25.5222876640      -32.2904654770  TIP3      5934            0.0000000000
     36519      6095  TIP3      OH2           -16.1762035203       27.6650953702      -31.6207888315  TIP3      5935            0.0000000000
     36520      6095  TIP3      H1            -15.6557150033       27.3923919864      -32.4100408955  TIP3      5935            0.0000000000
     36521      6095  TIP3      H2            -15.5497199139       28.2907336865      -31.2130666271  TIP3      5935            0.0000000000
     36522      6096  TIP3      OH2             1.2509733817       23.9305471695      -25.4673851777  TIP3      5936            0.0000000000
     36523      6096  TIP3      H1              0.3440602355       24.2789639232      -25.3846468774  TIP3      5936            0.0000000000
     36524      6096  TIP3      H2              1.2188992799       23.5794027322      -26.3801240059  TIP3      5936            0.0000000000
     36525      6097  TIP3      OH2             0.9228905231       23.9784350595      -40.5059161437  TIP3      5937            0.0000000000
     36526      6097  TIP3      H1              1.8622007522       23.9739035117      -40.8043890197  TIP3      5937            0.0000000000
     36527      6097  TIP3      H2              0.9625941416       24.7027017324      -39.8653989998  TIP3      5937            0.0000000000
     36528      6098  TIP3      OH2           -16.1648928641       24.6319015266      -37.3646919475  TIP3      5938            0.0000000000
     36529      6098  TIP3      H1            -17.0998208009       24.8665290456      -37.5311834504  TIP3      5938            0.0000000000
     36530      6098  TIP3      H2            -15.8072732061       24.8110643352      -38.2517305008  TIP3      5938            0.0000000000
     36531      6099  TIP3      OH2           -16.1096209515       22.6470901298      -29.6264411403  TIP3      5939            0.0000000000
     36532      6099  TIP3      H1            -16.3511577730       22.5933444822      -28.6853489141  TIP3      5939            0.0000000000
     36533      6099  TIP3      H2            -15.5709090265       23.4600784058      -29.6413819506  TIP3      5939            0.0000000000
     36534      6100  TIP3      OH2             0.9240014895       22.3464432887      -27.7947549141  TIP3      5940            0.0000000000
     36535      6100  TIP3      H1              0.0664498524       22.6420375669      -28.1467279912  TIP3      5940            0.0000000000
     36536      6100  TIP3      H2              0.9745679939       21.4073122014      -28.0775936508  TIP3      5940            0.0000000000
     36537      6101  TIP3      OH2            -5.7070984278       23.7688787333      -33.8315861389  TIP3      5941            0.0000000000
     36538      6101  TIP3      H1             -6.2461602353       23.0342503320      -33.4979069267  TIP3      5941            0.0000000000
     36539      6101  TIP3      H2             -4.9076821777       23.3214747268      -34.1497057450  TIP3      5941            0.0000000000
     36540      6102  TIP3      OH2            -0.6690045640       21.6370146635      -33.5355134252  TIP3      5942            0.0000000000
     36541      6102  TIP3      H1             -0.0968072270       22.1774943909      -34.1148960290  TIP3      5942            0.0000000000
     36542      6102  TIP3      H2             -1.5686571615       21.8832864907      -33.8301583714  TIP3      5942            0.0000000000
     36543      6103  TIP3      OH2             1.0851112487       22.7260655630      -35.5171912111  TIP3      5943            0.0000000000
     36544      6103  TIP3      H1              1.7839767826       22.0765637530      -35.7681766027  TIP3      5943            0.0000000000
     36545      6103  TIP3      H2              1.5595525142       23.3823310463      -34.9598487755  TIP3      5943            0.0000000000
     36546      6104  TIP3      OH2           -13.8310149262       22.1547741225      -35.1230483870  TIP3      5944            0.0000000000
     36547      6104  TIP3      H1            -14.4791001214       22.2583890783      -35.8391708564  TIP3      5944            0.0000000000
     36548      6104  TIP3      H2            -13.4290292454       21.2822294464      -35.3554078558  TIP3      5944            0.0000000000
     36549      6105  TIP3      OH2           -14.6815534780       21.9853176193      -39.8710799350  TIP3      5945            0.0000000000
     36550      6105  TIP3      H1            -13.9701256316       22.5585669673      -40.2478838708  TIP3      5945            0.0000000000
     36551      6105  TIP3      H2            -15.1210591636       22.5413288913      -39.2079887043  TIP3      5945            0.0000000000
     36552      6106  TIP3      OH2            -9.1887962925       21.7838874640      -35.3884210287  TIP3      5946            0.0000000000
     36553      6106  TIP3      H1             -8.3055530485       21.7233342078      -35.7685702899  TIP3      5946            0.0000000000
     36554      6106  TIP3      H2             -9.0006922103       22.1191027602      -34.4885280298  TIP3      5946            0.0000000000
     36555      6107  TIP3      OH2            -3.2974874279       22.1638869701      -34.7616920426  TIP3      5947            0.0000000000
     36556      6107  TIP3      H1             -3.5047781419       22.1899522797      -35.7044839178  TIP3      5947            0.0000000000
     36557      6107  TIP3      H2             -3.8344043901       21.4077361104      -34.4498194574  TIP3      5947            0.0000000000
     36558      6108  TIP3      OH2            -2.2684874025       22.3718907614      -38.5403889548  TIP3      5948            0.0000000000
     36559      6108  TIP3      H1             -3.0361216312       22.9521317275      -38.3347654787  TIP3      5948            0.0000000000
     36560      6108  TIP3      H2             -2.6091567247       21.5140627615      -38.2018093200  TIP3      5948            0.0000000000
     36561      6109  TIP3      OH2           -13.0702687417       23.3613202535      -41.4227221203  TIP3      5949            0.0000000000
     36562      6109  TIP3      H1            -12.5558195007       23.3535654477      -42.2575610166  TIP3      5949            0.0000000000
     36563      6109  TIP3      H2            -12.8360917721       24.2312808392      -41.0779537975  TIP3      5949            0.0000000000
     36564      6110  TIP3      OH2            -8.0417506411       23.9660783039      -38.4835618604  TIP3      5950            0.0000000000
     36565      6110  TIP3      H1             -7.5079672440       23.4497477439      -37.8529617570  TIP3      5950            0.0000000000
     36566      6110  TIP3      H2             -7.9018040449       24.8613482968      -38.0854218712  TIP3      5950            0.0000000000
     36567      6111  TIP3      OH2           -14.4133170622       22.7416510143      -26.5697686015  TIP3      5951            0.0000000000
     36568      6111  TIP3      H1            -14.4783152613       21.8390526685      -26.2141995316  TIP3      5951            0.0000000000
     36569      6111  TIP3      H2            -13.5777848780       23.0835952523      -26.2081744199  TIP3      5951            0.0000000000
     36570      6112  TIP3      OH2           -11.6194809483       21.7586376244      -24.5807429637  TIP3      5952            0.0000000000
     36571      6112  TIP3      H1            -11.1932807718       22.1163829504      -25.3796046614  TIP3      5952            0.0000000000
     36572      6112  TIP3      H2            -11.1433466607       20.9107310706      -24.4318743445  TIP3      5952            0.0000000000
     36573      6113  TIP3      OH2            -3.3367985708       21.6145260368      -24.1131839727  TIP3      5953            0.0000000000
     36574      6113  TIP3      H1             -3.6620640728       20.7908072300      -23.6761580696  TIP3      5953            0.0000000000
     36575      6113  TIP3      H2             -2.3932882107       21.3399143853      -24.1763274995  TIP3      5953            0.0000000000
     36576      6114  TIP3      OH2            14.6144007806       31.4287294404      -35.4637976942  TIP3      5954            0.0000000000
     36577      6114  TIP3      H1             14.4296223952       32.2296419453      -34.9534049968  TIP3      5954            0.0000000000
     36578      6114  TIP3      H2             13.8548562836       31.4182992036      -36.0854900353  TIP3      5954            0.0000000000
     36579      6115  TIP3      OH2            13.3313095474       30.8729907515      -32.0038316014  TIP3      5955            0.0000000000
     36580      6115  TIP3      H1             13.4822802015       30.3112511144      -31.2103895848  TIP3      5955            0.0000000000
     36581      6115  TIP3      H2             12.8439147103       30.2588230640      -32.5782649109  TIP3      5955            0.0000000000
     36582      6116  TIP3      OH2             6.9052651971       29.9007585754      -30.3771866550  TIP3      5956            0.0000000000
     36583      6116  TIP3      H1              6.3102054332       29.8281395284      -31.1583432414  TIP3      5956            0.0000000000
     36584      6116  TIP3      H2              6.6225485782       30.7876844927      -30.0619393413  TIP3      5956            0.0000000000
     36585      6117  TIP3      OH2            16.9788919079       33.2929696069      -34.0679456683  TIP3      5957            0.0000000000
     36586      6117  TIP3      H1             16.8507022738       32.6119597902      -33.3797330335  TIP3      5957            0.0000000000
     36587      6117  TIP3      H2             17.4956081448       33.9715143058      -33.5831725209  TIP3      5957            0.0000000000
     36588      6118  TIP3      OH2             6.7024514270       34.4487419080      -31.7523150311  TIP3      5958            0.0000000000
     36589      6118  TIP3      H1              6.2958568513       33.5476206490      -31.6786048320  TIP3      5958            0.0000000000
     36590      6118  TIP3      H2              7.3851951803       34.2087005804      -32.4142861436  TIP3      5958            0.0000000000
     36591      6119  TIP3      OH2             3.2535790479       28.4227796242      -36.5054727839  TIP3      5959            0.0000000000
     36592      6119  TIP3      H1              3.1050112882       29.3860594398      -36.3913492222  TIP3      5959            0.0000000000
     36593      6119  TIP3      H2              3.3944199847       28.3483313488      -37.4650084296  TIP3      5959            0.0000000000
     36594      6120  TIP3      OH2             3.8389893559       31.1607457548      -34.6002822041  TIP3      5960            0.0000000000
     36595      6120  TIP3      H1              3.6912183810       30.5381372385      -33.8590949892  TIP3      5960            0.0000000000
     36596      6120  TIP3      H2              4.6805633099       31.5373266988      -34.2966954634  TIP3      5960            0.0000000000
     36597      6121  TIP3      OH2            11.5212919980       33.5582475496      -31.5255011338  TIP3      5961            0.0000000000
     36598      6121  TIP3      H1             11.9312721686       32.8672679736      -32.0750551420  TIP3      5961            0.0000000000
     36599      6121  TIP3      H2             12.1745837121       33.5750013855      -30.7814603032  TIP3      5961            0.0000000000
     36600      6122  TIP3      OH2            20.2773052167       24.7226793364      -31.1525247630  TIP3      5962            0.0000000000
     36601      6122  TIP3      H1             20.5636141722       25.2679406419      -30.3867402903  TIP3      5962            0.0000000000
     36602      6122  TIP3      H2             21.0858154934       24.6910369099      -31.6895842748  TIP3      5962            0.0000000000
     36603      6123  TIP3      OH2            15.0139200201       27.2926276345      -31.0920957120  TIP3      5963            0.0000000000
     36604      6123  TIP3      H1             14.3287767299       26.6829974470      -30.7510696613  TIP3      5963            0.0000000000
     36605      6123  TIP3      H2             15.0267822672       26.9879618850      -32.0228627378  TIP3      5963            0.0000000000
     36606      6124  TIP3      OH2             7.9724625132       25.3875752514      -34.5426002413  TIP3      5964            0.0000000000
     36607      6124  TIP3      H1              8.1258484296       26.2677420118      -34.9598671905  TIP3      5964            0.0000000000
     36608      6124  TIP3      H2              7.5216945321       24.9004106716      -35.2801862016  TIP3      5964            0.0000000000
     36609      6125  TIP3      OH2            15.9878466993       25.6364081865      -36.2140745306  TIP3      5965            0.0000000000
     36610      6125  TIP3      H1             15.4861670784       25.1192260603      -35.5481651079  TIP3      5965            0.0000000000
     36611      6125  TIP3      H2             15.5730348907       26.5072649151      -36.0502053612  TIP3      5965            0.0000000000
     36612      6126  TIP3      OH2             6.4002965922       28.6867408202      -34.4500667723  TIP3      5966            0.0000000000
     36613      6126  TIP3      H1              5.6900753452       29.1006353333      -33.9260393305  TIP3      5966            0.0000000000
     36614      6126  TIP3      H2              6.0288362216       27.8279928634      -34.7211097598  TIP3      5966            0.0000000000
     36615      6127  TIP3      OH2             9.7301377333       29.8368786507      -34.1137524349  TIP3      5967            0.0000000000
     36616      6127  TIP3      H1             10.6471124687       29.4787514556      -34.0743557326  TIP3      5967            0.0000000000
     36617      6127  TIP3      H2              9.3076025111       29.0337705690      -34.4986132929  TIP3      5967            0.0000000000
     36618      6128  TIP3      OH2            20.4792346626       26.1794182150      -28.7886894128  TIP3      5968            0.0000000000
     36619      6128  TIP3      H1             19.9381002569       26.9753646929      -28.9647630266  TIP3      5968            0.0000000000
     36620      6128  TIP3      H2             20.9354536181       26.4046198849      -27.9680243116  TIP3      5968            0.0000000000
     36621      6129  TIP3      OH2             6.9973321273       24.2882614457      -30.4105157260  TIP3      5969            0.0000000000
     36622      6129  TIP3      H1              6.8099866253       24.9199362644      -31.1452742959  TIP3      5969            0.0000000000
     36623      6129  TIP3      H2              6.4490575618       24.6314988291      -29.6814893875  TIP3      5969            0.0000000000
     36624      6130  TIP3      OH2            14.1140182020       34.2367695657      -36.8987193882  TIP3      5970            0.0000000000
     36625      6130  TIP3      H1             13.8080253137       34.0541777455      -37.8190598025  TIP3      5970            0.0000000000
     36626      6130  TIP3      H2             13.4078711219       34.8105927532      -36.5474074088  TIP3      5970            0.0000000000
     36627      6131  TIP3      OH2             9.3075967679       32.4051300728      -29.6588703832  TIP3      5971            0.0000000000
     36628      6131  TIP3      H1              8.4048818664       32.6752363622      -29.9091912745  TIP3      5971            0.0000000000
     36629      6131  TIP3      H2              9.8988588401       32.9908644841      -30.1668535711  TIP3      5971            0.0000000000
     36630      6132  TIP3      OH2            17.6293429081       25.2353300396      -33.7370682513  TIP3      5972            0.0000000000
     36631      6132  TIP3      H1             17.0639155376       24.4528806677      -33.6254261748  TIP3      5972            0.0000000000
     36632      6132  TIP3      H2             18.0769262288       25.0334348036      -34.5632898206  TIP3      5972            0.0000000000
     36633      6133  TIP3      OH2             7.1246559114       26.2864643795      -32.1148155509  TIP3      5973            0.0000000000
     36634      6133  TIP3      H1              7.9158198022       26.7908489438      -31.8236536205  TIP3      5973            0.0000000000
     36635      6133  TIP3      H2              7.3679835893       26.0423899411      -33.0375992242  TIP3      5973            0.0000000000
     36636      6134  TIP3      OH2             7.3292648874       35.0744724729      -29.1818253659  TIP3      5974            0.0000000000
     36637      6134  TIP3      H1              7.1635724847       35.1315319169      -30.1483943087  TIP3      5974            0.0000000000
     36638      6134  TIP3      H2              6.8077573610       34.2520708398      -29.0149404728  TIP3      5974            0.0000000000
     36639      6135  TIP3      OH2             4.3029564553       33.8086588269      -38.3352816043  TIP3      5975            0.0000000000
     36640      6135  TIP3      H1              4.1186383424       34.0424306827      -39.2665477398  TIP3      5975            0.0000000000
     36641      6135  TIP3      H2              3.5594517916       34.2977553716      -37.9228273884  TIP3      5975            0.0000000000
     36642      6136  TIP3      OH2            18.0436146886       23.4132467864      -29.7291777932  TIP3      5976            0.0000000000
     36643      6136  TIP3      H1             17.2410228721       23.2356950587      -30.2610634328  TIP3      5976            0.0000000000
     36644      6136  TIP3      H2             18.7610434258       23.2722901991      -30.3818350803  TIP3      5976            0.0000000000
     36645      6137  TIP3      OH2            10.4020321795       21.8477993298      -33.1244333386  TIP3      5977            0.0000000000
     36646      6137  TIP3      H1             10.1786267128       20.9347605133      -32.8787089840  TIP3      5977            0.0000000000
     36647      6137  TIP3      H2              9.6970430984       22.3171852664      -32.6042152502  TIP3      5977            0.0000000000
     36648      6138  TIP3      OH2            18.2156584083       33.5613749199      -28.1925961803  TIP3      5978            0.0000000000
     36649      6138  TIP3      H1             18.3021032805       32.8136429510      -28.8177153890  TIP3      5978            0.0000000000
     36650      6138  TIP3      H2             17.7624126200       34.2272570776      -28.7433770990  TIP3      5978            0.0000000000
     36651      6139  TIP3      OH2            13.2066114497       30.7930352710      -38.0016276900  TIP3      5979            0.0000000000
     36652      6139  TIP3      H1             12.5705953241       31.4703811487      -38.3079566452  TIP3      5979            0.0000000000
     36653      6139  TIP3      H2             13.8779998393       30.8285948956      -38.7158933040  TIP3      5979            0.0000000000
     36654      6140  TIP3      OH2            12.9091963519       29.7653343732      -41.1608221655  TIP3      5980            0.0000000000
     36655      6140  TIP3      H1             13.6917316810       29.9829049302      -40.6100488150  TIP3      5980            0.0000000000
     36656      6140  TIP3      H2             13.1896517085       28.9073965220      -41.5123860701  TIP3      5980            0.0000000000
     36657      6141  TIP3      OH2            20.2376002350       30.0965397338      -30.1590150775  TIP3      5981            0.0000000000
     36658      6141  TIP3      H1             19.7446878698       30.9456539393      -30.2389709743  TIP3      5981            0.0000000000
     36659      6141  TIP3      H2             21.1227219450       30.3504014243      -30.4780420392  TIP3      5981            0.0000000000
     36660      6142  TIP3      OH2            16.9205037400       30.9204995489      -36.8521429948  TIP3      5982            0.0000000000
     36661      6142  TIP3      H1             16.0917118378       30.9518277091      -36.3208144617  TIP3      5982            0.0000000000
     36662      6142  TIP3      H2             17.5176622314       30.3427324645      -36.3529531878  TIP3      5982            0.0000000000
     36663      6143  TIP3      OH2            16.4291297670       29.0708908876      -28.3896110737  TIP3      5983            0.0000000000
     36664      6143  TIP3      H1             16.2023689046       29.9390234364      -28.0468993091  TIP3      5983            0.0000000000
     36665      6143  TIP3      H2             15.7211669962       28.9935084191      -29.0566828194  TIP3      5983            0.0000000000
     36666      6144  TIP3      OH2             7.9551780951       31.4674829249      -35.1699344779  TIP3      5984            0.0000000000
     36667      6144  TIP3      H1              7.6352881631       31.0089398509      -35.9802162972  TIP3      5984            0.0000000000
     36668      6144  TIP3      H2              8.5308414795       30.7836152915      -34.7607509956  TIP3      5984            0.0000000000
     36669      6145  TIP3      OH2             9.0893668833       33.6231353256      -33.0698025418  TIP3      5985            0.0000000000
     36670      6145  TIP3      H1              9.4697864052       32.9499167274      -33.6590089973  TIP3      5985            0.0000000000
     36671      6145  TIP3      H2              9.7517181453       33.7120913671      -32.3573125318  TIP3      5985            0.0000000000
     36672      6146  TIP3      OH2             9.6019920726       30.1240144070      -31.4312058361  TIP3      5986            0.0000000000
     36673      6146  TIP3      H1              9.4906144394       30.1503974840      -32.4002499828  TIP3      5986            0.0000000000
     36674      6146  TIP3      H2              9.0728621415       30.9003583009      -31.1671895105  TIP3      5986            0.0000000000
     36675      6147  TIP3      OH2             8.9056285552       34.1191678318      -26.7799195675  TIP3      5987            0.0000000000
     36676      6147  TIP3      H1              9.4717830120       34.9138893997      -26.8949252088  TIP3      5987            0.0000000000
     36677      6147  TIP3      H2              8.9654748096       33.6950477987      -27.6627346294  TIP3      5987            0.0000000000
     36678      6148  TIP3      OH2            15.4568430483       30.5510729617      -39.4604413026  TIP3      5988            0.0000000000
     36679      6148  TIP3      H1             16.0293488364       30.2856403830      -38.7153801582  TIP3      5988            0.0000000000
     36680      6148  TIP3      H2             16.0872638484       30.8685194872      -40.1445244634  TIP3      5988            0.0000000000
     36681      6149  TIP3      OH2             6.4491558636       31.0931828287      -26.7291202542  TIP3      5989            0.0000000000
     36682      6149  TIP3      H1              6.2167854298       31.6252334258      -27.5325932596  TIP3      5989            0.0000000000
     36683      6149  TIP3      H2              6.0852468756       30.2535602735      -27.0489157828  TIP3      5989            0.0000000000
     36684      6150  TIP3      OH2            19.5285256616       21.9256777544      -39.0687594224  TIP3      5990            0.0000000000
     36685      6150  TIP3      H1             18.6086957080       21.7355137271      -39.2941922055  TIP3      5990            0.0000000000
     36686      6150  TIP3      H2             19.7521141589       22.6358146336      -39.7038143997  TIP3      5990            0.0000000000
     36687      6151  TIP3      OH2             7.1041020970       30.3540663156      -37.6072572811  TIP3      5991            0.0000000000
     36688      6151  TIP3      H1              6.6997155739       31.1284723595      -38.0704221850  TIP3      5991            0.0000000000
     36689      6151  TIP3      H2              6.5284047903       29.6211599740      -37.8613899212  TIP3      5991            0.0000000000
     36690      6152  TIP3      OH2             2.5840358767       32.9770190573      -29.0480099498  TIP3      5992            0.0000000000
     36691      6152  TIP3      H1              2.6133081806       32.6742669790      -29.9796224216  TIP3      5992            0.0000000000
     36692      6152  TIP3      H2              3.2199685349       32.3338581731      -28.6735358148  TIP3      5992            0.0000000000
     36693      6153  TIP3      OH2            18.6161653223       27.8745237259      -26.3248341527  TIP3      5993            0.0000000000
     36694      6153  TIP3      H1             18.1564464712       28.2031817620      -27.1143156332  TIP3      5993            0.0000000000
     36695      6153  TIP3      H2             18.3451002529       26.9351204571      -26.3585143180  TIP3      5993            0.0000000000
     36696      6154  TIP3      OH2             4.3538442322       34.7208207573      -27.6511139608  TIP3      5994            0.0000000000
     36697      6154  TIP3      H1              4.2565644219       33.7702970643      -27.4976112481  TIP3      5994            0.0000000000
     36698      6154  TIP3      H2              4.0223237550       34.7538602587      -28.5662224424  TIP3      5994            0.0000000000
     36699      6155  TIP3      OH2             8.4505707225       22.6079651069      -31.6634586723  TIP3      5995            0.0000000000
     36700      6155  TIP3      H1              7.6003609182       22.4730615132      -32.1358053713  TIP3      5995            0.0000000000
     36701      6155  TIP3      H2              8.1069079610       23.2419417787      -30.9882251470  TIP3      5995            0.0000000000
     36702      6156  TIP3      OH2            12.8257823127       22.3265952786      -28.5259346179  TIP3      5996            0.0000000000
     36703      6156  TIP3      H1             13.3116225957       21.6663963680      -27.9863872548  TIP3      5996            0.0000000000
     36704      6156  TIP3      H2             11.8769109225       22.1890689417      -28.3045026125  TIP3      5996            0.0000000000
     36705      6157  TIP3      OH2            16.2567576521       26.5915559678      -27.1260786725  TIP3      5997            0.0000000000
     36706      6157  TIP3      H1             15.5246556719       26.2394619051      -26.5811941370  TIP3      5997            0.0000000000
     36707      6157  TIP3      H2             16.0029887485       27.5231419127      -27.2059874395  TIP3      5997            0.0000000000
     36708      6158  TIP3      OH2            16.9487242937       31.3175013183      -41.5679771580  TIP3      5998            0.0000000000
     36709      6158  TIP3      H1             16.9104889692       30.6703693107      -42.2853504720  TIP3      5998            0.0000000000
     36710      6158  TIP3      H2             17.8578111917       31.6858146291      -41.6464848027  TIP3      5998            0.0000000000
     36711      6159  TIP3      OH2            12.8886521298       25.4096307677      -41.3389159477  TIP3      5999            0.0000000000
     36712      6159  TIP3      H1             12.3192527538       25.2910151781      -40.5586966502  TIP3      5999            0.0000000000
     36713      6159  TIP3      H2             13.0377643360       24.4845503151      -41.6077651366  TIP3      5999            0.0000000000
     36714      6160  TIP3      OH2             8.8920489135       27.6962552065      -30.5980386637  TIP3      6000            0.0000000000
     36715      6160  TIP3      H1              8.0274341715       27.9574596155      -30.2431996014  TIP3      6000            0.0000000000
     36716      6160  TIP3      H2              9.1520494577       28.6008315307      -30.9080443858  TIP3      6000            0.0000000000
     36717      6161  TIP3      OH2             8.6209244858       27.7855203733      -35.5576235996  TIP3      6001            0.0000000000
     36718      6161  TIP3      H1              7.8405591436       28.3824458633      -35.5264417496  TIP3      6001            0.0000000000
     36719      6161  TIP3      H2              8.7569243423       27.7144950077      -36.5249247952  TIP3      6001            0.0000000000
     36720      6162  TIP3      OH2            13.8541731701       28.2395306670      -37.2623338983  TIP3      6002            0.0000000000
     36721      6162  TIP3      H1             13.5878247228       29.1507422211      -37.4998095133  TIP3      6002            0.0000000000
     36722      6162  TIP3      H2             14.5718847411       28.0725562373      -37.9086890337  TIP3      6002            0.0000000000
     36723      6163  TIP3      OH2            12.7130537094       28.6567642912      -25.6704905644  TIP3      6003            0.0000000000
     36724      6163  TIP3      H1             12.1720436590       27.9403524541      -25.2710795821  TIP3      6003            0.0000000000
     36725      6163  TIP3      H2             13.5101222732       28.5475666096      -25.1183430647  TIP3      6003            0.0000000000
     36726      6164  TIP3      OH2            15.4860075495       28.1689764792      -34.2503246970  TIP3      6004            0.0000000000
     36727      6164  TIP3      H1             14.7266850237       28.6200852445      -34.6635673947  TIP3      6004            0.0000000000
     36728      6164  TIP3      H2             15.0357648608       27.3156525968      -34.0388254761  TIP3      6004            0.0000000000
     36729      6165  TIP3      OH2             5.6287610635       27.7943498764      -28.9727981017  TIP3      6005            0.0000000000
     36730      6165  TIP3      H1              6.3243619043       28.4660562555      -29.0254262362  TIP3      6005            0.0000000000
     36731      6165  TIP3      H2              5.9712574548       27.1889023829      -28.2946520564  TIP3      6005            0.0000000000
     36732      6166  TIP3      OH2             9.2168197748       25.8759193818      -41.3408878187  TIP3      6006            0.0000000000
     36733      6166  TIP3      H1              8.7396879933       25.0283436168      -41.2877374640  TIP3      6006            0.0000000000
     36734      6166  TIP3      H2              8.9120137200       26.2277111671      -42.1866015352  TIP3      6006            0.0000000000
     36735      6167  TIP3      OH2             2.5615380522       24.9688406153      -35.0350657098  TIP3      6007            0.0000000000
     36736      6167  TIP3      H1              3.3681844923       25.1065871798      -34.5172471209  TIP3      6007            0.0000000000
     36737      6167  TIP3      H2              2.9654406882       24.8273338377      -35.9249757230  TIP3      6007            0.0000000000
     36738      6168  TIP3      OH2             4.5836638174       26.5793938674      -39.4104447106  TIP3      6008            0.0000000000
     36739      6168  TIP3      H1              4.6369902167       25.8713965562      -40.0819649158  TIP3      6008            0.0000000000
     36740      6168  TIP3      H2              3.6084943144       26.7265213760      -39.3821774136  TIP3      6008            0.0000000000
     36741      6169  TIP3      OH2            13.9450770330       29.3689644772      -29.8044403821  TIP3      6009            0.0000000000
     36742      6169  TIP3      H1             14.3011130900       28.6778377846      -30.4052476042  TIP3      6009            0.0000000000
     36743      6169  TIP3      H2             13.3555945825       28.8302445121      -29.2249148528  TIP3      6009            0.0000000000
     36744      6170  TIP3      OH2            10.8763264179       24.7127557244      -34.9911868361  TIP3      6010            0.0000000000
     36745      6170  TIP3      H1              9.9241982821       24.9021596768      -34.8557432359  TIP3      6010            0.0000000000
     36746      6170  TIP3      H2             11.3090841090       25.1617241060      -34.2429322599  TIP3      6010            0.0000000000
     36747      6171  TIP3      OH2             5.2244933928       26.2440470555      -36.3100722109  TIP3      6011            0.0000000000
     36748      6171  TIP3      H1              4.7904340534       26.5107462589      -37.1417713854  TIP3      6011            0.0000000000
     36749      6171  TIP3      H2              5.7848964218       25.4888990412      -36.6173292478  TIP3      6011            0.0000000000
     36750      6172  TIP3      OH2             8.8420393538       27.1646302065      -38.2246062839  TIP3      6012            0.0000000000
     36751      6172  TIP3      H1              9.7934632835       26.9756093328      -38.1145101576  TIP3      6012            0.0000000000
     36752      6172  TIP3      H2              8.7871838908       27.5245491622      -39.1285609217  TIP3      6012            0.0000000000
     36753      6173  TIP3      OH2            15.6609364900       24.1993690307      -31.4185632819  TIP3      6013            0.0000000000
     36754      6173  TIP3      H1             14.8676258286       24.2846345114      -30.8545789721  TIP3      6013            0.0000000000
     36755      6173  TIP3      H2             15.2252645449       24.2163799679      -32.2956907858  TIP3      6013            0.0000000000
     36756      6174  TIP3      OH2             7.9031228321       28.5880311053      -41.0744125326  TIP3      6014            0.0000000000
     36757      6174  TIP3      H1              7.6585675005       27.9244656880      -41.7484012848  TIP3      6014            0.0000000000
     36758      6174  TIP3      H2              8.8770046106       28.5705765404      -41.1753632908  TIP3      6014            0.0000000000
     36759      6175  TIP3      OH2             5.8197849292       33.3879694323      -25.2789493826  TIP3      6015            0.0000000000
     36760      6175  TIP3      H1              5.8472452760       32.5427344158      -25.7823327433  TIP3      6015            0.0000000000
     36761      6175  TIP3      H2              4.8740667732       33.3817361275      -25.0088668678  TIP3      6015            0.0000000000
     36762      6176  TIP3      OH2            12.0025712586       28.3759407719      -33.1472455329  TIP3      6016            0.0000000000
     36763      6176  TIP3      H1             12.5835129999       27.5871885562      -33.2830808141  TIP3      6016            0.0000000000
     36764      6176  TIP3      H2             11.4309314964       28.0440747383      -32.4360422272  TIP3      6016            0.0000000000
     36765      6177  TIP3      OH2             6.7061617147       24.0100154260      -36.3993277286  TIP3      6017            0.0000000000
     36766      6177  TIP3      H1              6.1504866446       23.2736792689      -36.0540893444  TIP3      6017            0.0000000000
     36767      6177  TIP3      H2              7.0435495292       23.6443053849      -37.2319959321  TIP3      6017            0.0000000000
     36768      6178  TIP3      OH2            11.3839287316       26.6255129619      -30.5319563560  TIP3      6018            0.0000000000
     36769      6178  TIP3      H1             10.5241189328       27.0800263933      -30.5961980929  TIP3      6018            0.0000000000
     36770      6178  TIP3      H2             11.7950567695       27.0581527307      -29.7590638728  TIP3      6018            0.0000000000
     36771      6179  TIP3      OH2            11.5280102000       32.8864094221      -38.8138919833  TIP3      6019            0.0000000000
     36772      6179  TIP3      H1             10.8384000462       32.4015762830      -39.3254500372  TIP3      6019            0.0000000000
     36773      6179  TIP3      H2             10.9683848048       33.0553635037      -38.0171466379  TIP3      6019            0.0000000000
     36774      6180  TIP3      OH2            18.7821487620       32.3578799440      -30.6104483694  TIP3      6020            0.0000000000
     36775      6180  TIP3      H1             18.9460768131       33.2966746888      -30.7843386532  TIP3      6020            0.0000000000
     36776      6180  TIP3      H2             17.8287658256       32.2533090694      -30.8446406821  TIP3      6020            0.0000000000
     36777      6181  TIP3      OH2            15.6288204891       25.6987773330      -40.8067481020  TIP3      6021            0.0000000000
     36778      6181  TIP3      H1             14.7550289555       25.5314014943      -41.2118782598  TIP3      6021            0.0000000000
     36779      6181  TIP3      H2             15.4167552030       26.5046809750      -40.2978603548  TIP3      6021            0.0000000000
     36780      6182  TIP3      OH2            13.2818823539       32.9948122128      -27.0374711232  TIP3      6022            0.0000000000
     36781      6182  TIP3      H1             12.4745444781       32.6763317113      -26.5886442066  TIP3      6022            0.0000000000
     36782      6182  TIP3      H2             12.9984657343       33.8442325114      -27.3923334852  TIP3      6022            0.0000000000
     36783      6183  TIP3      OH2            15.8908607507       27.7613644444      -38.9440633174  TIP3      6023            0.0000000000
     36784      6183  TIP3      H1             16.4717871876       27.4879734094      -38.2061117115  TIP3      6023            0.0000000000
     36785      6183  TIP3      H2             16.5536936788       28.0271295443      -39.5977842769  TIP3      6023            0.0000000000
     36786      6184  TIP3      OH2             6.4657380278       32.0349207605      -32.6798945128  TIP3      6024            0.0000000000
     36787      6184  TIP3      H1              6.9204111082       31.9908398811      -33.5548890602  TIP3      6024            0.0000000000
     36788      6184  TIP3      H2              6.0478812655       31.1649055774      -32.5706142962  TIP3      6024            0.0000000000
     36789      6185  TIP3      OH2            13.6857514414       34.2011600039      -39.5950335764  TIP3      6025            0.0000000000
     36790      6185  TIP3      H1             13.1746001104       34.9441428115      -39.9447998708  TIP3      6025            0.0000000000
     36791      6185  TIP3      H2             12.9574130599       33.5489391068      -39.4330515562  TIP3      6025            0.0000000000
     36792      6186  TIP3      OH2             3.2898084401       30.7968987723      -27.4255669849  TIP3      6026            0.0000000000
     36793      6186  TIP3      H1              3.4690149705       30.0806432015      -26.7898641364  TIP3      6026            0.0000000000
     36794      6186  TIP3      H2              3.2102793366       30.3142925207      -28.2618324007  TIP3      6026            0.0000000000
     36795      6187  TIP3      OH2            10.0567732878       29.8856400044      -25.5661443651  TIP3      6027            0.0000000000
     36796      6187  TIP3      H1              9.6555142864       29.5295956228      -26.3794809577  TIP3      6027            0.0000000000
     36797      6187  TIP3      H2             10.9768316526       29.6228574135      -25.7276561089  TIP3      6027            0.0000000000
     36798      6188  TIP3      OH2            20.7744069057       27.7704926712      -39.5846778887  TIP3      6028            0.0000000000
     36799      6188  TIP3      H1             20.0579338630       27.4027899344      -40.1171309959  TIP3      6028            0.0000000000
     36800      6188  TIP3      H2             20.6879739267       28.7386557579      -39.7639797557  TIP3      6028            0.0000000000
     36801      6189  TIP3      OH2            20.9256393701       33.6016935987      -26.5714638841  TIP3      6029            0.0000000000
     36802      6189  TIP3      H1             20.1342272199       34.0571154022      -26.2323344922  TIP3      6029            0.0000000000
     36803      6189  TIP3      H2             20.8172863415       33.7544684397      -27.5339174441  TIP3      6029            0.0000000000
     36804      6190  TIP3      OH2            16.3640535491       31.4303959447      -31.9610058659  TIP3      6030            0.0000000000
     36805      6190  TIP3      H1             15.4403734419       31.1215601424      -32.0454972901  TIP3      6030            0.0000000000
     36806      6190  TIP3      H2             16.8418323829       30.6913535520      -32.3963981584  TIP3      6030            0.0000000000
     36807      6191  TIP3      OH2             4.3502508823       30.6853803287      -40.4540468867  TIP3      6031            0.0000000000
     36808      6191  TIP3      H1              5.2452346634       30.9886191021      -40.2025470749  TIP3      6031            0.0000000000
     36809      6191  TIP3      H2              3.8477768959       31.5138492472      -40.3771735059  TIP3      6031            0.0000000000
     36810      6192  TIP3      OH2             9.9270988072       33.0433951985      -36.5906874946  TIP3      6032            0.0000000000
     36811      6192  TIP3      H1              9.7699483673       33.9762345378      -36.2970596848  TIP3      6032            0.0000000000
     36812      6192  TIP3      H2              9.3213188302       32.5222655784      -36.0222955775  TIP3      6032            0.0000000000
     36813      6193  TIP3      OH2            13.5514756962       33.0619408371      -29.7383453145  TIP3      6033            0.0000000000
     36814      6193  TIP3      H1             13.5964069431       32.6337223848      -28.8538651203  TIP3      6033            0.0000000000
     36815      6193  TIP3      H2             14.2931125619       32.6351254419      -30.2013971871  TIP3      6033            0.0000000000
     36816      6194  TIP3      OH2            16.3867195667       34.6100965211      -40.6241776962  TIP3      6034            0.0000000000
     36817      6194  TIP3      H1             16.9215922845       33.8726219030      -40.2470531578  TIP3      6034            0.0000000000
     36818      6194  TIP3      H2             15.4988998057       34.2133512533      -40.5398163411  TIP3      6034            0.0000000000
     36819      6195  TIP3      OH2             4.9103192197       25.1597787843      -28.5085451030  TIP3      6035            0.0000000000
     36820      6195  TIP3      H1              4.0922075323       25.5356813006      -28.1597967886  TIP3      6035            0.0000000000
     36821      6195  TIP3      H2              5.0071615527       24.4103936619      -27.9112585457  TIP3      6035            0.0000000000
     36822      6196  TIP3      OH2            17.4450794678       32.7260105947      -38.9943402027  TIP3      6036            0.0000000000
     36823      6196  TIP3      H1             17.1487042765       31.8445434998      -38.7054302354  TIP3      6036            0.0000000000
     36824      6196  TIP3      H2             18.4183069675       32.6565431174      -38.8434672301  TIP3      6036            0.0000000000
     36825      6197  TIP3      OH2             6.2663401548       32.2584657874      -39.2823928944  TIP3      6037            0.0000000000
     36826      6197  TIP3      H1              5.4442369769       32.6804765630      -38.9294254779  TIP3      6037            0.0000000000
     36827      6197  TIP3      H2              6.6004467909       33.0009965913      -39.8172675663  TIP3      6037            0.0000000000
     36828      6198  TIP3      OH2            13.9594439749       24.9088910430      -29.0083608700  TIP3      6038            0.0000000000
     36829      6198  TIP3      H1             14.4137794060       24.9749220827      -28.1560445220  TIP3      6038            0.0000000000
     36830      6198  TIP3      H2             13.4504257323       24.0771713049      -28.8513153521  TIP3      6038            0.0000000000
     36831      6199  TIP3      OH2            14.3793882482       24.7719872136      -38.2072662761  TIP3      6039            0.0000000000
     36832      6199  TIP3      H1             14.8886687663       24.7191713221      -39.0313353970  TIP3      6039            0.0000000000
     36833      6199  TIP3      H2             15.1026986056       24.9216238169      -37.5718441954  TIP3      6039            0.0000000000
     36834      6200  TIP3      OH2            11.6966226990       26.5039144392      -37.2868136847  TIP3      6040            0.0000000000
     36835      6200  TIP3      H1             12.4983453204       27.0753409250      -37.3047900170  TIP3      6040            0.0000000000
     36836      6200  TIP3      H2             11.7563272669       26.0445914640      -36.4367346199  TIP3      6040            0.0000000000
     36837      6201  TIP3      OH2            12.5978127209       27.5760803470      -28.2966570107  TIP3      6041            0.0000000000
     36838      6201  TIP3      H1             12.5030717454       28.1253120582      -27.4915502609  TIP3      6041            0.0000000000
     36839      6201  TIP3      H2             13.1371981190       26.8231373066      -28.0015187263  TIP3      6041            0.0000000000
     36840      6202  TIP3      OH2            13.0121417202       23.4238332296      -36.0752736510  TIP3      6042            0.0000000000
     36841      6202  TIP3      H1             12.2813604117       23.9013480362      -35.6126012070  TIP3      6042            0.0000000000
     36842      6202  TIP3      H2             13.5243372064       24.1536121989      -36.4678090607  TIP3      6042            0.0000000000
     36843      6203  TIP3      OH2             8.0840081496       24.5677252982      -38.8523794615  TIP3      6043            0.0000000000
     36844      6203  TIP3      H1              8.0947963623       25.5010309395      -38.5670210869  TIP3      6043            0.0000000000
     36845      6203  TIP3      H2              9.0418053155       24.4287779635      -39.0018980829  TIP3      6043            0.0000000000
     36846      6204  TIP3      OH2            18.6472906696       25.0188179148      -26.9975525100  TIP3      6044            0.0000000000
     36847      6204  TIP3      H1             17.6916059135       24.9823890114      -27.1756916562  TIP3      6044            0.0000000000
     36848      6204  TIP3      H2             19.0474241467       25.0756737162      -27.8809263195  TIP3      6044            0.0000000000
     36849      6205  TIP3      OH2            17.5023977709       29.6016247743      -33.4614740651  TIP3      6045            0.0000000000
     36850      6205  TIP3      H1             16.6656274162       29.1091046513      -33.6704301859  TIP3      6045            0.0000000000
     36851      6205  TIP3      H2             18.0096885674       28.8559954091      -33.0571983959  TIP3      6045            0.0000000000
     36852      6206  TIP3      OH2             6.5021996599       34.4801372889      -40.9449963599  TIP3      6046            0.0000000000
     36853      6206  TIP3      H1              6.6232667863       35.1645457509      -40.2597270715  TIP3      6046            0.0000000000
     36854      6206  TIP3      H2              7.3671983609       34.3631066484      -41.3715353768  TIP3      6046            0.0000000000
     36855      6207  TIP3      OH2             5.2809304986       27.8208654654      -42.0637186197  TIP3      6047            0.0000000000
     36856      6207  TIP3      H1              5.8455695169       28.5220308305      -41.7021226181  TIP3      6047            0.0000000000
     36857      6207  TIP3      H2              4.7860726038       27.5611254957      -41.2726538366  TIP3      6047            0.0000000000
     36858      6208  TIP3      OH2             5.9558654767       22.1757112046      -32.8046695684  TIP3      6048            0.0000000000
     36859      6208  TIP3      H1              5.9124116460       22.1212364790      -33.7790513960  TIP3      6048            0.0000000000
     36860      6208  TIP3      H2              5.5466320715       21.3247457772      -32.5340652254  TIP3      6048            0.0000000000
     36861      6209  TIP3      OH2             3.5306769874       32.3881317398      -24.7481980515  TIP3      6049            0.0000000000
     36862      6209  TIP3      H1              3.5006514611       31.4684539781      -25.0709734952  TIP3      6049            0.0000000000
     36863      6209  TIP3      H2              2.9285076564       32.8222235075      -25.4016013619  TIP3      6049            0.0000000000
     36864      6210  TIP3      OH2             9.0216283059       33.3450710873      -42.6465046260  TIP3      6050            0.0000000000
     36865      6210  TIP3      H1              8.7782749213       32.9118235670      -41.8235657948  TIP3      6050            0.0000000000
     36866      6210  TIP3      H2              8.9000840244       32.5964742727      -43.2683091763  TIP3      6050            0.0000000000
     36867      6211  TIP3      OH2            10.8179805319       32.4644938227      -25.9186698781  TIP3      6051            0.0000000000
     36868      6211  TIP3      H1             10.1396129226       33.1190368870      -26.1834021569  TIP3      6051            0.0000000000
     36869      6211  TIP3      H2             10.4719430447       31.6419694132      -26.3264413918  TIP3      6051            0.0000000000
     36870      6212  TIP3      OH2            15.9667274757       32.8234008695      -26.9512300439  TIP3      6052            0.0000000000
     36871      6212  TIP3      H1             16.7931030642       33.2054668427      -27.3208098726  TIP3      6052            0.0000000000
     36872      6212  TIP3      H2             15.2736456672       33.4416274344      -27.2884071638  TIP3      6052            0.0000000000
     36873      6213  TIP3      OH2             4.6614441118       29.8794916053      -24.8085105074  TIP3      6053            0.0000000000
     36874      6213  TIP3      H1              5.4634925546       29.5371517604      -25.2083309050  TIP3      6053            0.0000000000
     36875      6213  TIP3      H2              5.0494700584       30.3342511844      -24.0291778136  TIP3      6053            0.0000000000
     36876      6214  TIP3      OH2             9.5453242546       31.4047660107      -39.9855304025  TIP3      6054            0.0000000000
     36877      6214  TIP3      H1              8.7131206447       31.2448936336      -39.5030233339  TIP3      6054            0.0000000000
     36878      6214  TIP3      H2              9.7073699540       30.5439177833      -40.3990614893  TIP3      6054            0.0000000000
     36879      6215  TIP3      OH2             8.3439637006       28.9568635540      -27.6579852470  TIP3      6055            0.0000000000
     36880      6215  TIP3      H1              7.9191087371       29.5813780213      -27.0319594931  TIP3      6055            0.0000000000
     36881      6215  TIP3      H2              8.4590824080       29.4883268812      -28.4613737052  TIP3      6055            0.0000000000
     36882      6216  TIP3      OH2            10.4134908654       29.2757771745      -42.0132276964  TIP3      6056            0.0000000000
     36883      6216  TIP3      H1             10.8038145358       29.1645534228      -42.8919783609  TIP3      6056            0.0000000000
     36884      6216  TIP3      H2             11.2223668411       29.4659517310      -41.4798916366  TIP3      6056            0.0000000000
     36885      6217  TIP3      OH2            13.9772144339       31.2346137806      -24.0960165811  TIP3      6057            0.0000000000
     36886      6217  TIP3      H1             13.9322210873       30.9140889796      -25.0160515444  TIP3      6057            0.0000000000
     36887      6217  TIP3      H2             13.7867403813       30.4219322020      -23.5641644514  TIP3      6057            0.0000000000
     36888      6218  TIP3      OH2            19.4017037956       32.2769857207      -42.0778947692  TIP3      6058            0.0000000000
     36889      6218  TIP3      H1             20.1018461937       31.7430985375      -42.5104757367  TIP3      6058            0.0000000000
     36890      6218  TIP3      H2             19.8834671753       32.7393970849      -41.3684126153  TIP3      6058            0.0000000000
     36891      6219  TIP3      OH2             9.4613366452       26.5095467951      -26.6674149917  TIP3      6059            0.0000000000
     36892      6219  TIP3      H1              9.4835800727       25.9013058369      -27.4315502997  TIP3      6059            0.0000000000
     36893      6219  TIP3      H2              9.3177379453       27.3618996986      -27.1321348694  TIP3      6059            0.0000000000
     36894      6220  TIP3      OH2             9.8330762225       24.8496515630      -29.0903597211  TIP3      6060            0.0000000000
     36895      6220  TIP3      H1             10.5664675157       25.1858173380      -29.6662586686  TIP3      6060            0.0000000000
     36896      6220  TIP3      H2              9.0654360818       25.1683405367      -29.5931692225  TIP3      6060            0.0000000000
     36897      6221  TIP3      OH2            10.9834124319       30.4353877434      -28.3791414767  TIP3      6061            0.0000000000
     36898      6221  TIP3      H1             11.7587549514       30.3616690533      -28.9482756140  TIP3      6061            0.0000000000
     36899      6221  TIP3      H2             10.3635146471       30.9758941801      -28.9225675622  TIP3      6061            0.0000000000
     36900      6222  TIP3      OH2            15.4169674005       27.6702548729      -23.9068136642  TIP3      6062            0.0000000000
     36901      6222  TIP3      H1             15.5739772421       26.7283638412      -24.0613659795  TIP3      6062            0.0000000000
     36902      6222  TIP3      H2             16.3261356168       28.0264652680      -23.8846549592  TIP3      6062            0.0000000000
     36903      6223  TIP3      OH2            16.9730910837       30.5956570193      -25.5569555861  TIP3      6063            0.0000000000
     36904      6223  TIP3      H1             16.6594269364       31.2607856036      -26.2068821431  TIP3      6063            0.0000000000
     36905      6223  TIP3      H2             17.8458642828       30.3564705012      -25.9223474129  TIP3      6063            0.0000000000
     36906      6224  TIP3      OH2             7.3237748585       27.5810585656      -24.7671549072  TIP3      6064            0.0000000000
     36907      6224  TIP3      H1              6.6420431552       26.8880887140      -24.7690094815  TIP3      6064            0.0000000000
     36908      6224  TIP3      H2              8.0926190690       27.0677762159      -25.0585066055  TIP3      6064            0.0000000000
     36909      6225  TIP3      OH2            10.0902009345       22.1316900992      -28.6098950508  TIP3      6065            0.0000000000
     36910      6225  TIP3      H1              9.9368873432       23.0844413659      -28.7781957279  TIP3      6065            0.0000000000
     36911      6225  TIP3      H2              9.5391478180       21.7283528653      -29.2861109639  TIP3      6065            0.0000000000
     36912      6226  TIP3      OH2            11.2464479229       26.4213875790      -24.5484715694  TIP3      6066            0.0000000000
     36913      6226  TIP3      H1             10.6954302777       26.0434332985      -23.8415371488  TIP3      6066            0.0000000000
     36914      6226  TIP3      H2             10.7349364285       26.1586546681      -25.3447971153  TIP3      6066            0.0000000000
     36915      6227  TIP3      OH2            14.1014309101       25.5327023851      -25.7243799199  TIP3      6067            0.0000000000
     36916      6227  TIP3      H1             13.2189551545       25.7595068765      -25.3826696054  TIP3      6067            0.0000000000
     36917      6227  TIP3      H2             14.3772057294       24.9012198686      -25.0379455043  TIP3      6067            0.0000000000
     36918      6228  TIP3      OH2            14.9309148601       24.1628633215      -23.1523954942  TIP3      6068            0.0000000000
     36919      6228  TIP3      H1             14.2129073308       24.0758923984      -22.4808422842  TIP3      6068            0.0000000000
     36920      6228  TIP3      H2             15.5549656822       24.7186803892      -22.6677692871  TIP3      6068            0.0000000000
     36921      6229  TIP3      OH2             5.3402621809       25.4538554828      -24.9823242288  TIP3      6069            0.0000000000
     36922      6229  TIP3      H1              5.3575920108       24.6620587785      -25.5634732909  TIP3      6069            0.0000000000
     36923      6229  TIP3      H2              5.0002817467       25.0773288494      -24.1609589787  TIP3      6069            0.0000000000
     36924      6230  TIP3      OH2            10.4195502446       22.0651099172      -25.9976491094  TIP3      6070            0.0000000000
     36925      6230  TIP3      H1             11.1922594316       21.4522780472      -25.9529400597  TIP3      6070            0.0000000000
     36926      6230  TIP3      H2             10.1523570161       21.8748625154      -26.9220180019  TIP3      6070            0.0000000000
     36927      6231  TIP3      OH2            10.2920714301       23.5692941471      -23.6001958284  TIP3      6071            0.0000000000
     36928      6231  TIP3      H1             10.5348043342       22.7888814727      -24.1422033057  TIP3      6071            0.0000000000
     36929      6231  TIP3      H2              9.6999907806       23.9797282202      -24.2311612266  TIP3      6071            0.0000000000
     36930      6232  TIP3      OH2             3.9813653388       33.6590934084      -41.0429372356  TIP3      6072            0.0000000000
     36931      6232  TIP3      H1              4.8439158409       34.1199165478      -41.1128228291  TIP3      6072            0.0000000000
     36932      6232  TIP3      H2              3.5132685555       33.9955193740      -41.8186140837  TIP3      6072            0.0000000000
     36933      6233  TIP3      OH2            18.4989207867       33.7213622076      -23.7879919977  TIP3      6073            0.0000000000
     36934      6233  TIP3      H1             18.0366829554       33.7538450256      -22.9170713873  TIP3      6073            0.0000000000
     36935      6233  TIP3      H2             19.1249195264       34.4783030372      -23.6956385420  TIP3      6073            0.0000000000
     36936      6234  TIP3      OH2            19.9722716956       32.4262087097      -38.2810304876  TIP3      6074            0.0000000000
     36937      6234  TIP3      H1             20.7725128208       32.9649173410      -38.4674542028  TIP3      6074            0.0000000000
     36938      6234  TIP3      H2             20.2801600524       31.8820991948      -37.5274437058  TIP3      6074            0.0000000000
     36939      6235  TIP3      OH2            20.6209698220       30.4654820106      -36.4897906058  TIP3      6075            0.0000000000
     36940      6235  TIP3      H1             20.0214752955       29.6936501901      -36.3392567167  TIP3      6075            0.0000000000
     36941      6235  TIP3      H2             21.3859218305       30.3012498877      -35.9055479982  TIP3      6075            0.0000000000
     36942      6236  TIP3      OH2            21.1114054265       33.7869031461      -31.4258566605  TIP3      6076            0.0000000000
     36943      6236  TIP3      H1             21.1798214737       33.0532939815      -32.0634538617  TIP3      6076            0.0000000000
     36944      6236  TIP3      H2             20.4925400432       34.4059966356      -31.8428144222  TIP3      6076            0.0000000000
     36945      6237  TIP3      OH2            20.4618965497       30.2827054870      -40.2092440444  TIP3      6077            0.0000000000
     36946      6237  TIP3      H1             19.6409072262       30.4811619685      -40.6807604634  TIP3      6077            0.0000000000
     36947      6237  TIP3      H2             20.5085521061       31.0202849618      -39.5720580121  TIP3      6077            0.0000000000
     36948      6238  TIP3      OH2            18.4416406891       27.6388093125      -41.5621564076  TIP3      6078            0.0000000000
     36949      6238  TIP3      H1             19.2651535041       27.9262063362      -42.0021915012  TIP3      6078            0.0000000000
     36950      6238  TIP3      H2             18.3576943691       26.7368736599      -41.9442652086  TIP3      6078            0.0000000000
     36951      6239  TIP3      OH2            18.6845962857       28.7953420362      -35.6798916347  TIP3      6079            0.0000000000
     36952      6239  TIP3      H1             18.5202571008       28.0647783843      -36.3260298607  TIP3      6079            0.0000000000
     36953      6239  TIP3      H2             17.9210148537       28.7286394929      -35.0902465362  TIP3      6079            0.0000000000
     36954      6240  TIP3      OH2             3.3586293769       32.4586737053      -31.6200923446  TIP3      6080            0.0000000000
     36955      6240  TIP3      H1              3.8134676966       31.8244723678      -32.1995621626  TIP3      6080            0.0000000000
     36956      6240  TIP3      H2              4.1443436321       32.8827485951      -31.2266706604  TIP3      6080            0.0000000000
     36957      6241  TIP3      OH2            19.6090246920       31.1480052020      -26.2523563675  TIP3      6081            0.0000000000
     36958      6241  TIP3      H1             20.2814218429       30.4400085690      -26.1781011839  TIP3      6081            0.0000000000
     36959      6241  TIP3      H2             20.1357539532       31.9625739388      -26.3852424453  TIP3      6081            0.0000000000
     36960      6242  TIP3      OH2            21.0242600567       28.8642512043      -25.6785006872  TIP3      6082            0.0000000000
     36961      6242  TIP3      H1             20.1218814389       28.5200776153      -25.8826060864  TIP3      6082            0.0000000000
     36962      6242  TIP3      H2             21.5109201029       28.0102854293      -25.6318864835  TIP3      6082            0.0000000000
     36963      6243  TIP3      OH2            18.3112948618       25.2218436587      -42.7386589441  TIP3      6083            0.0000000000
     36964      6243  TIP3      H1             18.8099222721       24.6663183459      -42.1068937482  TIP3      6083            0.0000000000
     36965      6243  TIP3      H2             17.4032536422       25.0369072278      -42.4496192243  TIP3      6083            0.0000000000
     36966      6244  TIP3      OH2            18.0277697550       26.9688345325      -37.5765674193  TIP3      6084            0.0000000000
     36967      6244  TIP3      H1             17.5147994792       26.2383822058      -37.1716758315  TIP3      6084            0.0000000000
     36968      6244  TIP3      H2             18.6933652311       26.4356503010      -38.0541363286  TIP3      6084            0.0000000000
     36969      6245  TIP3      OH2            19.2432854063       28.0370067167      -32.2724770018  TIP3      6085            0.0000000000
     36970      6245  TIP3      H1             20.1275656713       27.6414679764      -32.4288866706  TIP3      6085            0.0000000000
     36971      6245  TIP3      H2             19.3304180106       28.1415758753      -31.3037870867  TIP3      6085            0.0000000000
     36972      6246  TIP3      OH2            18.4263577950       27.8334335194      -29.7184827797  TIP3      6086            0.0000000000
     36973      6246  TIP3      H1             17.6004830159       28.2013907787      -29.3262383617  TIP3      6086            0.0000000000
     36974      6246  TIP3      H2             18.9555033378       28.6554678688      -29.8053755739  TIP3      6086            0.0000000000
     36975      6247  TIP3      OH2             2.8010948361       26.2477046225      -26.0917645581  TIP3      6087            0.0000000000
     36976      6247  TIP3      H1              3.6475854958       26.1714769121      -25.6096680049  TIP3      6087            0.0000000000
     36977      6247  TIP3      H2              2.3034614685       25.4558536806      -25.7832847358  TIP3      6087            0.0000000000
     36978      6248  TIP3      OH2            18.7686217327       24.3710604671      -37.5325619711  TIP3      6088            0.0000000000
     36979      6248  TIP3      H1             19.1886683344       23.8705118328      -36.8069483738  TIP3      6088            0.0000000000
     36980      6248  TIP3      H2             18.0613607121       23.7593261569      -37.8068784538  TIP3      6088            0.0000000000
     36981      6249  TIP3      OH2             4.6411510198       24.4816760818      -32.4613615414  TIP3      6089            0.0000000000
     36982      6249  TIP3      H1              4.4173145510       23.5700354599      -32.1727874597  TIP3      6089            0.0000000000
     36983      6249  TIP3      H2              5.4318634095       24.2541491097      -32.9851421620  TIP3      6089            0.0000000000
     36984      6250  TIP3      OH2             2.0944707201       27.6749722283      -31.7885352828  TIP3      6090            0.0000000000
     36985      6250  TIP3      H1              2.5279467186       28.5344697692      -32.0042425880  TIP3      6090            0.0000000000
     36986      6250  TIP3      H2              1.6373343485       27.9655899871      -30.9795619369  TIP3      6090            0.0000000000
     36987      6251  TIP3      OH2            20.5608354352       24.0803256437      -25.4071996997  TIP3      6091            0.0000000000
     36988      6251  TIP3      H1             19.7250063696       24.5434600275      -25.6097495860  TIP3      6091            0.0000000000
     36989      6251  TIP3      H2             20.7021459739       23.6877269624      -26.2880892558  TIP3      6091            0.0000000000
     36990      6252  TIP3      OH2            20.1331217401       24.0650707590      -41.0449158753  TIP3      6092            0.0000000000
     36991      6252  TIP3      H1             20.3869809291       23.5598914945      -41.8285877337  TIP3      6092            0.0000000000
     36992      6252  TIP3      H2             20.9297081307       24.6155903238      -40.9527473137  TIP3      6092            0.0000000000
     36993      6253  TIP3      OH2             2.9549962121       24.2999174507      -37.7112186180  TIP3      6093            0.0000000000
     36994      6253  TIP3      H1              1.9891528618       24.2982972083      -37.5950529335  TIP3      6093            0.0000000000
     36995      6253  TIP3      H2              3.0761005278       24.4663768687      -38.6622622744  TIP3      6093            0.0000000000
     36996      6254  TIP3      OH2             2.8371768360       22.7649574220      -29.7261382400  TIP3      6094            0.0000000000
     36997      6254  TIP3      H1              2.3322098051       22.4066414607      -28.9697385708  TIP3      6094            0.0000000000
     36998      6254  TIP3      H2              2.1219276307       23.1358491249      -30.2630671328  TIP3      6094            0.0000000000
     36999      6255  TIP3      OH2            20.1390578583       22.1830184545      -27.7249216223  TIP3      6095            0.0000000000
     37000      6255  TIP3      H1             19.5385648707       22.5115735785      -28.4181102891  TIP3      6095            0.0000000000
     37001      6255  TIP3      H2             20.2900223979       21.2494660554      -28.0214836371  TIP3      6095            0.0000000000
     37002      6256  TIP3      OH2            12.8626317953       22.5423859523      -32.6852060990  TIP3      6096            0.0000000000
     37003      6256  TIP3      H1             11.9142176807       22.4545605073      -32.9480227242  TIP3      6096            0.0000000000
     37004      6256  TIP3      H2             13.1708468310       23.2811907205      -33.2397753036  TIP3      6096            0.0000000000
     37005      6257  TIP3      OH2            18.4146555131       21.7745690828      -33.1246769939  TIP3      6097            0.0000000000
     37006      6257  TIP3      H1             19.0229337954       22.1830902956      -33.7837591291  TIP3      6097            0.0000000000
     37007      6257  TIP3      H2             17.5701190462       21.7892545732      -33.6402890047  TIP3      6097            0.0000000000
     37008      6258  TIP3      OH2            19.8771205939       22.9630192702      -35.0855538253  TIP3      6098            0.0000000000
     37009      6258  TIP3      H1             20.5448116175       22.3565044056      -35.4692983138  TIP3      6098            0.0000000000
     37010      6258  TIP3      H2             20.4786401625       23.6291882116      -34.6801418298  TIP3      6098            0.0000000000
     37011      6259  TIP3      OH2             5.1949562695       21.9728146651      -35.6532438145  TIP3      6099            0.0000000000
     37012      6259  TIP3      H1              4.2658334213       21.7822733950      -35.8856124698  TIP3      6099            0.0000000000
     37013      6259  TIP3      H2              5.5830511885       21.0742147035      -35.8016870085  TIP3      6099            0.0000000000
     37014      6260  TIP3      OH2             4.3850098548       21.8888346246      -39.3478056728  TIP3      6100            0.0000000000
     37015      6260  TIP3      H1              4.1407081764       22.6895009646      -39.8581362863  TIP3      6100            0.0000000000
     37016      6260  TIP3      H2              4.1747681861       22.1796343912      -38.4442032014  TIP3      6100            0.0000000000
     37017      6261  TIP3      OH2             9.3662613598       21.9693573234      -35.6286565991  TIP3      6101            0.0000000000
     37018      6261  TIP3      H1              9.9241143918       22.5477032291      -36.1750103752  TIP3      6101            0.0000000000
     37019      6261  TIP3      H2              9.7503681400       22.1241687525      -34.7414342992  TIP3      6101            0.0000000000
     37020      6262  TIP3      OH2            15.9753076536       22.2292338006      -34.3262878499  TIP3      6102            0.0000000000
     37021      6262  TIP3      H1             15.6367690583       22.3608666978      -35.2210337204  TIP3      6102            0.0000000000
     37022      6262  TIP3      H2             15.5378322464       21.3860328573      -34.0984034297  TIP3      6102            0.0000000000
     37023      6263  TIP3      OH2            16.4939162137       22.3381939878      -38.3602469511  TIP3      6103            0.0000000000
     37024      6263  TIP3      H1             16.0045844267       22.0794087052      -39.1552354816  TIP3      6103            0.0000000000
     37025      6263  TIP3      H2             16.6918757286       21.4663974032      -37.9556051012  TIP3      6103            0.0000000000
     37026      6264  TIP3      OH2             6.9960522131       23.8774161214      -41.1932469619  TIP3      6104            0.0000000000
     37027      6264  TIP3      H1              6.0655744813       24.0631628644      -40.9541315933  TIP3      6104            0.0000000000
     37028      6264  TIP3      H2              7.4156272227       24.0057043345      -40.3076663249  TIP3      6104            0.0000000000
     37029      6265  TIP3      OH2            10.9296164151       24.4801544900      -38.7858555340  TIP3      6105            0.0000000000
     37030      6265  TIP3      H1             11.2730877942       23.7678443476      -38.2215841171  TIP3      6105            0.0000000000
     37031      6265  TIP3      H2             11.3215931226       25.2746916605      -38.3474052016  TIP3      6105            0.0000000000
     37032      6266  TIP3      OH2             4.9943020137       22.8976949730      -26.1135723300  TIP3      6106            0.0000000000
     37033      6266  TIP3      H1              4.5254695430       22.0460137886      -26.0883118701  TIP3      6106            0.0000000000
     37034      6266  TIP3      H2              5.7029758110       22.7302325128      -25.4525788712  TIP3      6106            0.0000000000
     37035      6267  TIP3      OH2             6.9082544769       22.2851733587      -24.2913860579  TIP3      6107            0.0000000000
     37036      6267  TIP3      H1              7.8081763127       22.0968856337      -24.6068409771  TIP3      6107            0.0000000000
     37037      6267  TIP3      H2              6.6709400335       21.4408075088      -23.8473932161  TIP3      6107            0.0000000000
     37038      6268  TIP3      OH2            15.2331480256       21.5245233187      -24.2246831992  TIP3      6108            0.0000000000
     37039      6268  TIP3      H1             14.7181710291       21.1739724509      -23.4715712020  TIP3      6108            0.0000000000
     37040      6268  TIP3      H2             15.0385310129       22.4807330369      -24.1060302132  TIP3      6108            0.0000000000
     37041      6269  TIP3      OH2            33.4415541811       31.6411715215      -35.7684020002  TIP3      6109            0.0000000000
     37042      6269  TIP3      H1             33.1584968016       32.0717225591      -34.9390782761  TIP3      6109            0.0000000000
     37043      6269  TIP3      H2             32.8453003952       30.8743244622      -35.7959636583  TIP3      6109            0.0000000000
     37044      6270  TIP3      OH2            32.1997287814       30.3609860456      -32.3444949808  TIP3      6110            0.0000000000
     37045      6270  TIP3      H1             32.6544905766       29.8415575929      -31.6758683611  TIP3      6110            0.0000000000
     37046      6270  TIP3      H2             31.3952522609       29.8429793095      -32.5425560734  TIP3      6110            0.0000000000
     37047      6271  TIP3      OH2            23.6044571036       30.8606387051      -29.8942963449  TIP3      6111            0.0000000000
     37048      6271  TIP3      H1             23.5077045470       29.9288729894      -29.5808091945  TIP3      6111            0.0000000000
     37049      6271  TIP3      H2             24.5166091337       30.8472750665      -30.2946075927  TIP3      6111            0.0000000000
     37050      6272  TIP3      OH2            25.3721623212       34.0086108908      -32.0167643576  TIP3      6112            0.0000000000
     37051      6272  TIP3      H1             25.0238850533       33.3639253489      -32.6676844518  TIP3      6112            0.0000000000
     37052      6272  TIP3      H2             26.3226474387       33.7883648783      -32.1745534180  TIP3      6112            0.0000000000
     37053      6273  TIP3      OH2            22.2240626182       28.0997119369      -37.1280993403  TIP3      6113            0.0000000000
     37054      6273  TIP3      H1             21.8760849225       28.9527135694      -36.8786152833  TIP3      6113            0.0000000000
     37055      6273  TIP3      H2             21.8978837678       28.0042412589      -38.0467709388  TIP3      6113            0.0000000000
     37056      6274  TIP3      OH2            22.7303306943       30.4264857404      -34.6960328684  TIP3      6114            0.0000000000
     37057      6274  TIP3      H1             23.1521505081       29.6533114733      -34.2351183995  TIP3      6114            0.0000000000
     37058      6274  TIP3      H2             23.4308952402       31.0952718815      -34.5518299630  TIP3      6114            0.0000000000
     37059      6275  TIP3      OH2            30.3191085127       33.1330823256      -31.4064178683  TIP3      6115            0.0000000000
     37060      6275  TIP3      H1             30.4081287862       32.2453609369      -31.7824129408  TIP3      6115            0.0000000000
     37061      6275  TIP3      H2             31.2877708718       33.3017153631      -31.2994521295  TIP3      6115            0.0000000000
     37062      6276  TIP3      OH2            33.2397816278       27.1839690454      -31.7423635470  TIP3      6116            0.0000000000
     37063      6276  TIP3      H1             33.1787222169       26.2630849518      -32.0916067502  TIP3      6116            0.0000000000
     37064      6276  TIP3      H2             34.0923449523       27.4834789369      -32.1268902880  TIP3      6116            0.0000000000
     37065      6277  TIP3      OH2            26.7827063408       25.5265978152      -34.1971843947  TIP3      6117            0.0000000000
     37066      6277  TIP3      H1             27.0368815313       26.2960203346      -34.7658046219  TIP3      6117            0.0000000000
     37067      6277  TIP3      H2             26.4912312393       24.9133696900      -34.9019754409  TIP3      6117            0.0000000000
     37068      6278  TIP3      OH2            34.8890063285       26.6505720636      -36.8054790724  TIP3      6118            0.0000000000
     37069      6278  TIP3      H1             34.2708194167       26.7920317485      -36.0645041638  TIP3      6118            0.0000000000
     37070      6278  TIP3      H2             35.1298921909       25.7222359475      -36.6282413963  TIP3      6118            0.0000000000
     37071      6279  TIP3      OH2            23.6289462119       28.2997030932      -33.4306567077  TIP3      6119            0.0000000000
     37072      6279  TIP3      H1             24.2730322636       27.8806985601      -32.8259910476  TIP3      6119            0.0000000000
     37073      6279  TIP3      H2             23.7728922291       27.7110175337      -34.2052863899  TIP3      6119            0.0000000000
     37074      6280  TIP3      OH2            28.5930422320       29.5820787572      -34.3167850500  TIP3      6120            0.0000000000
     37075      6280  TIP3      H1             29.3688839000       29.0841566850      -33.9785603296  TIP3      6120            0.0000000000
     37076      6280  TIP3      H2             28.1418556434       28.8583124845      -34.8049410348  TIP3      6120            0.0000000000
     37077      6281  TIP3      OH2            26.0970130151       24.9132044569      -30.1133824494  TIP3      6121            0.0000000000
     37078      6281  TIP3      H1             25.5531513494       25.2597132966      -30.8501086331  TIP3      6121            0.0000000000
     37079      6281  TIP3      H2             25.4878683585       24.9800784940      -29.3456596283  TIP3      6121            0.0000000000
     37080      6282  TIP3      OH2            33.8907994170       34.3637033583      -36.5350960728  TIP3      6122            0.0000000000
     37081      6282  TIP3      H1             33.7429317845       33.3990986407      -36.4623956869  TIP3      6122            0.0000000000
     37082      6282  TIP3      H2             33.4279710247       34.6211344124      -35.7087601787  TIP3      6122            0.0000000000
     37083      6283  TIP3      OH2            28.4440737778       32.3768404053      -29.6406991915  TIP3      6123            0.0000000000
     37084      6283  TIP3      H1             27.6276405472       32.5712175920      -30.1313170901  TIP3      6123            0.0000000000
     37085      6283  TIP3      H2             29.1330526400       32.7179360360      -30.2545993573  TIP3      6123            0.0000000000
     37086      6284  TIP3      OH2            25.4160750359       26.6306058614      -32.2240882342  TIP3      6124            0.0000000000
     37087      6284  TIP3      H1             26.0545560723       27.2377454914      -31.7833353456  TIP3      6124            0.0000000000
     37088      6284  TIP3      H2             25.9644975696       26.3213741327      -32.9967771386  TIP3      6124            0.0000000000
     37089      6285  TIP3      OH2            26.6970832419       34.4481462154      -29.2445973832  TIP3      6125            0.0000000000
     37090      6285  TIP3      H1             26.4324881196       34.7674807008      -30.1145367745  TIP3      6125            0.0000000000
     37091      6285  TIP3      H2             25.8745878862       34.0102485945      -28.9251224304  TIP3      6125            0.0000000000
     37092      6286  TIP3      OH2            22.3934683722       33.6494950467      -38.7468157199  TIP3      6126            0.0000000000
     37093      6286  TIP3      H1             22.4161091570       33.8818152768      -39.7057379528  TIP3      6126            0.0000000000
     37094      6286  TIP3      H2             22.7505627711       34.4675809291      -38.3539994888  TIP3      6126            0.0000000000
     37095      6287  TIP3      OH2            29.5120423404       22.2703572272      -32.7759477023  TIP3      6127            0.0000000000
     37096      6287  TIP3      H1             29.4057280999       21.2937785085      -32.8098512351  TIP3      6127            0.0000000000
     37097      6287  TIP3      H2             28.6309141076       22.5525411523      -32.4402553748  TIP3      6127            0.0000000000
     37098      6288  TIP3      OH2            31.4145965091       30.9055392205      -38.5840132030  TIP3      6128            0.0000000000
     37099      6288  TIP3      H1             31.1485705667       31.4807458686      -39.3119371208  TIP3      6128            0.0000000000
     37100      6288  TIP3      H2             32.2768435505       30.5251301376      -38.8128991686  TIP3      6128            0.0000000000
     37101      6289  TIP3      OH2            32.5263480533       30.1744759490      -41.4717441297  TIP3      6129            0.0000000000
     37102      6289  TIP3      H1             32.7568712456       30.0100455638      -40.5381946317  TIP3      6129            0.0000000000
     37103      6289  TIP3      H2             32.4668297412       29.2552992918      -41.7550939666  TIP3      6129            0.0000000000
     37104      6290  TIP3      OH2            26.7995158716       31.4338125471      -35.3436804537  TIP3      6130            0.0000000000
     37105      6290  TIP3      H1             26.5500405569       30.8267468570      -36.0741824569  TIP3      6130            0.0000000000
     37106      6290  TIP3      H2             27.3870875608       30.8479424565      -34.8183683645  TIP3      6130            0.0000000000
     37107      6291  TIP3      OH2            27.8139909387       33.6320586964      -33.0559667623  TIP3      6131            0.0000000000
     37108      6291  TIP3      H1             28.4183115703       33.8948764047      -33.7657008552  TIP3      6131            0.0000000000
     37109      6291  TIP3      H2             28.4387100006       33.2523302656      -32.4086173659  TIP3      6131            0.0000000000
     37110      6292  TIP3      OH2            29.3344014292       30.1609629454      -31.6913331901  TIP3      6132            0.0000000000
     37111      6292  TIP3      H1             29.0502451302       30.0938791043      -32.6271167431  TIP3      6132            0.0000000000
     37112      6292  TIP3      H2             28.5313235112       30.5726276244      -31.3221484413  TIP3      6132            0.0000000000
     37113      6293  TIP3      OH2            27.4301780268       34.0163992907      -26.6210341508  TIP3      6133            0.0000000000
     37114      6293  TIP3      H1             28.0541856461       34.7519346369      -26.4030819345  TIP3      6133            0.0000000000
     37115      6293  TIP3      H2             27.5518617490       33.8677179385      -27.5816919598  TIP3      6133            0.0000000000
     37116      6294  TIP3      OH2            34.3229111462       30.6540356931      -39.5589930775  TIP3      6134            0.0000000000
     37117      6294  TIP3      H1             34.8471198065       31.2132571406      -38.9626020155  TIP3      6134            0.0000000000
     37118      6294  TIP3      H2             33.9461428144       31.3086804205      -40.1742838304  TIP3      6134            0.0000000000
     37119      6295  TIP3      OH2            25.4389315403       31.2736078294      -27.8732986818  TIP3      6135            0.0000000000
     37120      6295  TIP3      H1             26.3020019838       31.4375081411      -28.2921812418  TIP3      6135            0.0000000000
     37121      6295  TIP3      H2             25.0930286550       30.5531862857      -28.4210850304  TIP3      6135            0.0000000000
     37122      6296  TIP3      OH2            25.3770282015       30.1676579570      -37.3047734429  TIP3      6136            0.0000000000
     37123      6296  TIP3      H1             25.1648768065       30.9203205550      -37.9077812036  TIP3      6136            0.0000000000
     37124      6296  TIP3      H2             24.5140874013       30.0089464057      -36.9100664163  TIP3      6136            0.0000000000
     37125      6297  TIP3      OH2            21.9394248824       32.8231773882      -28.9819336153  TIP3      6137            0.0000000000
     37126      6297  TIP3      H1             21.4450223744       32.8816873622      -29.8213316545  TIP3      6137            0.0000000000
     37127      6297  TIP3      H2             22.6628584257       32.2050983707      -29.2563429170  TIP3      6137            0.0000000000
     37128      6298  TIP3      OH2            24.2243475231       34.0281574887      -28.3187788216  TIP3      6138            0.0000000000
     37129      6298  TIP3      H1             24.3782484510       34.4620529762      -27.4563225998  TIP3      6138            0.0000000000
     37130      6298  TIP3      H2             23.3337833235       33.6497297354      -28.2203280828  TIP3      6138            0.0000000000
     37131      6299  TIP3      OH2            27.2768274051       23.2301494317      -31.7874319913  TIP3      6139            0.0000000000
     37132      6299  TIP3      H1             26.5555493827       23.3682366384      -32.4261014642  TIP3      6139            0.0000000000
     37133      6299  TIP3      H2             26.9568613141       23.7172991878      -31.0009055557  TIP3      6139            0.0000000000
     37134      6300  TIP3      OH2            31.8668279738       22.2930947628      -28.6858762228  TIP3      6140            0.0000000000
     37135      6300  TIP3      H1             32.3436309573       22.1093282592      -27.8558764238  TIP3      6140            0.0000000000
     37136      6300  TIP3      H2             30.9248595343       22.1876291617      -28.4292685036  TIP3      6140            0.0000000000
     37137      6301  TIP3      OH2            32.2033087880       25.5253229758      -42.0390745722  TIP3      6141            0.0000000000
     37138      6301  TIP3      H1             31.8329528314       26.1898102437      -41.4176955394  TIP3      6141            0.0000000000
     37139      6301  TIP3      H2             31.5018273617       24.8423645442      -42.0290728014  TIP3      6141            0.0000000000
     37140      6302  TIP3      OH2            27.3815441165       27.9696763698      -30.5709829914  TIP3      6142            0.0000000000
     37141      6302  TIP3      H1             26.9341703767       27.9377445292      -29.7047311053  TIP3      6142            0.0000000000
     37142      6302  TIP3      H2             27.1229954303       28.8878676519      -30.8367802414  TIP3      6142            0.0000000000
     37143      6303  TIP3      OH2            27.2245958319       27.5722738847      -35.8808666918  TIP3      6143            0.0000000000
     37144      6303  TIP3      H1             26.3764542615       27.5360113993      -36.3733342025  TIP3      6143            0.0000000000
     37145      6303  TIP3      H2             27.8893089256       27.5006734593      -36.5919971479  TIP3      6143            0.0000000000
     37146      6304  TIP3      OH2            32.9923061705       28.5678736330      -36.9292427610  TIP3      6144            0.0000000000
     37147      6304  TIP3      H1             32.1503316673       28.8763755453      -37.2784634538  TIP3      6144            0.0000000000
     37148      6304  TIP3      H2             33.1626176849       27.8411289016      -37.5493235659  TIP3      6144            0.0000000000
     37149      6305  TIP3      OH2            31.5798594969       28.6718289574      -26.0577187650  TIP3      6145            0.0000000000
     37150      6305  TIP3      H1             31.3287424878       27.7857500600      -25.7369141791  TIP3      6145            0.0000000000
     37151      6305  TIP3      H2             32.3246254280       28.8584881795      -25.4639315808  TIP3      6145            0.0000000000
     37152      6306  TIP3      OH2            34.3823263911       28.1789446840      -34.2146599167  TIP3      6146            0.0000000000
     37153      6306  TIP3      H1             33.7302702023       28.4693281828      -34.8733130992  TIP3      6146            0.0000000000
     37154      6306  TIP3      H2             33.9950824336       27.3043444574      -34.0078328567  TIP3      6146            0.0000000000
     37155      6307  TIP3      OH2            24.3468398229       28.0120382411      -29.3100730976  TIP3      6147            0.0000000000
     37156      6307  TIP3      H1             24.8230887553       28.1937086563      -28.4849814281  TIP3      6147            0.0000000000
     37157      6307  TIP3      H2             24.5318485633       27.0560812626      -29.3961548418  TIP3      6147            0.0000000000
     37158      6308  TIP3      OH2            28.2427389333       25.9988848520      -41.8446889042  TIP3      6148            0.0000000000
     37159      6308  TIP3      H1             28.4487185671       25.1460508210      -41.4057830186  TIP3      6148            0.0000000000
     37160      6308  TIP3      H2             27.8709735738       26.5129560950      -41.1132099748  TIP3      6148            0.0000000000
     37161      6309  TIP3      OH2            21.7388978560       24.9572382295      -34.3880628745  TIP3      6149            0.0000000000
     37162      6309  TIP3      H1             22.4884098950       24.8717124795      -33.7666978640  TIP3      6149            0.0000000000
     37163      6309  TIP3      H2             22.1453867627       25.4731418360      -35.1046825023  TIP3      6149            0.0000000000
     37164      6310  TIP3      OH2            22.5156727175       25.8019417844      -40.0772364146  TIP3      6150            0.0000000000
     37165      6310  TIP3      H1             23.1698221481       25.9488582582      -40.7794149781  TIP3      6150            0.0000000000
     37166      6310  TIP3      H2             22.0779550870       26.6739224940      -40.0374597607  TIP3      6150            0.0000000000
     37167      6311  TIP3      OH2            33.2855647778       29.0111856226      -29.4095513266  TIP3      6151            0.0000000000
     37168      6311  TIP3      H1             33.4075535366       28.4980588931      -30.2255793271  TIP3      6151            0.0000000000
     37169      6311  TIP3      H2             32.4071287949       28.7307233589      -29.0839913994  TIP3      6151            0.0000000000
     37170      6312  TIP3      OH2            29.7184804309       24.9686140972      -34.6753176441  TIP3      6152            0.0000000000
     37171      6312  TIP3      H1             28.8104836049       25.0301665014      -34.3383504879  TIP3      6152            0.0000000000
     37172      6312  TIP3      H2             30.2348050604       25.5916599665      -34.1356960131  TIP3      6152            0.0000000000
     37173      6313  TIP3      OH2            23.9807149079       26.7813285827      -35.7349970919  TIP3      6153            0.0000000000
     37174      6313  TIP3      H1             23.3223059556       27.2785175387      -36.2814749481  TIP3      6153            0.0000000000
     37175      6313  TIP3      H2             24.5703724736       26.4914284036      -36.4728656715  TIP3      6153            0.0000000000
     37176      6314  TIP3      OH2            28.5416223738       27.6111429098      -38.8620720147  TIP3      6154            0.0000000000
     37177      6314  TIP3      H1             29.2552307722       27.5418180678      -38.1813361701  TIP3      6154            0.0000000000
     37178      6314  TIP3      H2             28.1135172029       26.7442277127      -38.8134769835  TIP3      6154            0.0000000000
     37179      6315  TIP3      OH2            33.7887787642       24.5853170147      -31.6574082159  TIP3      6155            0.0000000000
     37180      6315  TIP3      H1             32.9330348669       24.1445603053      -31.5359293841  TIP3      6155            0.0000000000
     37181      6315  TIP3      H2             33.9642611952       24.4075813648      -32.6039992089  TIP3      6155            0.0000000000
     37182      6316  TIP3      OH2            26.7967705311       28.4778403652      -41.5091733247  TIP3      6156            0.0000000000
     37183      6316  TIP3      H1             26.9020790972       28.4968391560      -42.4782569878  TIP3      6156            0.0000000000
     37184      6316  TIP3      H2             27.7188535022       28.3889964812      -41.2277941244  TIP3      6156            0.0000000000
     37185      6317  TIP3      OH2            25.0202149549       32.9537959358      -25.5923869361  TIP3      6157            0.0000000000
     37186      6317  TIP3      H1             25.8528827761       32.9922862715      -26.1242894945  TIP3      6157            0.0000000000
     37187      6317  TIP3      H2             25.3716408005       32.5378722283      -24.7850928236  TIP3      6157            0.0000000000
     37188      6318  TIP3      OH2            30.7851596826       28.0916323027      -33.2755194563  TIP3      6158            0.0000000000
     37189      6318  TIP3      H1             31.5426674600       27.5469689101      -33.5851417277  TIP3      6158            0.0000000000
     37190      6318  TIP3      H2             30.5333404169       27.6243826399      -32.4585536538  TIP3      6158            0.0000000000
     37191      6319  TIP3      OH2            26.0491210901       23.7731791260      -36.1142868117  TIP3      6159            0.0000000000
     37192      6319  TIP3      H1             25.1439412273       23.5657580412      -35.7874554648  TIP3      6159            0.0000000000
     37193      6319  TIP3      H2             25.9047962080       24.4925156694      -36.7664687927  TIP3      6159            0.0000000000
     37194      6320  TIP3      OH2            29.7918073117       26.1582066076      -30.7145910605  TIP3      6160            0.0000000000
     37195      6320  TIP3      H1             29.0107256092       26.7451770609      -30.7200952617  TIP3      6160            0.0000000000
     37196      6320  TIP3      H2             30.4416886955       26.7526722727      -30.3088976109  TIP3      6160            0.0000000000
     37197      6321  TIP3      OH2            30.0070774091       33.2299939610      -39.2319159175  TIP3      6161            0.0000000000
     37198      6321  TIP3      H1             29.1835352064       32.8925724825      -39.6249586684  TIP3      6161            0.0000000000
     37199      6321  TIP3      H2             29.8272700888       32.9548329914      -38.3009274658  TIP3      6161            0.0000000000
     37200      6322  TIP3      OH2            34.4222942112       25.4814252374      -40.3805470672  TIP3      6162            0.0000000000
     37201      6322  TIP3      H1             33.7884334634       25.4151452547      -41.1225079897  TIP3      6162            0.0000000000
     37202      6322  TIP3      H2             34.1500029518       26.3386658636      -39.9889264958  TIP3      6162            0.0000000000
     37203      6323  TIP3      OH2            32.3823480270       33.3138784417      -26.7962018107  TIP3      6163            0.0000000000
     37204      6323  TIP3      H1             32.2850642506       32.7579252900      -25.9937817444  TIP3      6163            0.0000000000
     37205      6323  TIP3      H2             31.4725963777       33.5515057860      -26.9987545024  TIP3      6163            0.0000000000
     37206      6324  TIP3      OH2           -35.0610666233       27.9228882476      -39.3985384882  TIP3      6164            0.0000000000
     37207      6324  TIP3      H1            -34.8970962212       27.9673036113      -38.4347443351  TIP3      6164            0.0000000000
     37208      6324  TIP3      H2            -35.3797932185       28.8181047876      -39.5915763731  TIP3      6164            0.0000000000
     37209      6325  TIP3      OH2            24.7512111449       32.0955438707      -33.6936811323  TIP3      6165            0.0000000000
     37210      6325  TIP3      H1             25.4123788725       32.0628435043      -34.4265234517  TIP3      6165            0.0000000000
     37211      6325  TIP3      H2             25.3505401098       31.7109340695      -33.0027266135  TIP3      6165            0.0000000000
     37212      6326  TIP3      OH2            32.8270532369       33.5399510889      -39.7748002987  TIP3      6166            0.0000000000
     37213      6326  TIP3      H1             33.1518834796       34.1731555515      -40.4549911657  TIP3      6166            0.0000000000
     37214      6326  TIP3      H2             31.8694622061       33.4787860602      -39.9475364818  TIP3      6166            0.0000000000
     37215      6327  TIP3      OH2            22.3718401943       29.6330092510      -27.8299543653  TIP3      6167            0.0000000000
     37216      6327  TIP3      H1             21.9299624019       29.1778831517      -27.0992846805  TIP3      6167            0.0000000000
     37217      6327  TIP3      H2             21.6746567404       29.5562833084      -28.5035104723  TIP3      6167            0.0000000000
     37218      6328  TIP3      OH2            28.8484742934       29.9638946378      -25.8698317224  TIP3      6168            0.0000000000
     37219      6328  TIP3      H1             29.1968268069       30.1805058663      -26.7768090782  TIP3      6168            0.0000000000
     37220      6328  TIP3      H2             29.6745686462       29.7274804259      -25.4269406545  TIP3      6168            0.0000000000
     37221      6329  TIP3      OH2            23.0772743822       30.5702362069      -40.8919526010  TIP3      6169            0.0000000000
     37222      6329  TIP3      H1             23.7714915486       31.2439256062      -40.8406814384  TIP3      6169            0.0000000000
     37223      6329  TIP3      H2             22.2831584017       31.1100842436      -40.7949107974  TIP3      6169            0.0000000000
     37224      6330  TIP3      OH2            29.2144691799       33.1918434383      -36.5543374519  TIP3      6170            0.0000000000
     37225      6330  TIP3      H1             28.8432436533       34.0104152162      -36.1897097197  TIP3      6170            0.0000000000
     37226      6330  TIP3      H2             29.0445238936       32.5009926822      -35.8923110319  TIP3      6170            0.0000000000
     37227      6331  TIP3      OH2            32.8156249905       32.8481081463      -30.0508569485  TIP3      6171            0.0000000000
     37228      6331  TIP3      H1             33.0244186578       32.8651477511      -29.0994639246  TIP3      6171            0.0000000000
     37229      6331  TIP3      H2             33.2180863978       32.0165813248      -30.3374101798  TIP3      6171            0.0000000000
     37230      6332  TIP3      OH2            24.4736259484       25.3847357598      -28.0443114026  TIP3      6172            0.0000000000
     37231      6332  TIP3      H1             23.8113695939       25.9026299448      -27.5569929854  TIP3      6172            0.0000000000
     37232      6332  TIP3      H2             24.1806381313       24.4816884408      -27.8575511923  TIP3      6172            0.0000000000
     37233      6333  TIP3      OH2            24.5767664381       31.9145331107      -39.0590630154  TIP3      6173            0.0000000000
     37234      6333  TIP3      H1             23.7283519336       32.3957521363      -39.0795631954  TIP3      6173            0.0000000000
     37235      6333  TIP3      H2             25.1943978677       32.5582128582      -39.4630794138  TIP3      6173            0.0000000000
     37236      6334  TIP3      OH2            32.9260357880       25.3433430718      -28.8105424801  TIP3      6174            0.0000000000
     37237      6334  TIP3      H1             33.3685333410       25.0038739410      -28.0036377762  TIP3      6174            0.0000000000
     37238      6334  TIP3      H2             32.5994490985       24.4861576324      -29.1225652562  TIP3      6174            0.0000000000
     37239      6335  TIP3      OH2            32.8863217294       25.2079659661      -38.1297539816  TIP3      6175            0.0000000000
     37240      6335  TIP3      H1             33.2675131391       24.8468912152      -38.9587063784  TIP3      6175            0.0000000000
     37241      6335  TIP3      H2             33.6559967480       25.6972638702      -37.8011944249  TIP3      6175            0.0000000000
     37242      6336  TIP3      OH2            30.3495384939       26.8639808763      -36.9382082925  TIP3      6176            0.0000000000
     37243      6336  TIP3      H1             31.1031501567       27.0002330846      -37.5368740923  TIP3      6176            0.0000000000
     37244      6336  TIP3      H2             30.6253353093       26.0996302054      -36.3922114657  TIP3      6176            0.0000000000
     37245      6337  TIP3      OH2            31.0842211218       27.6255615535      -28.5122086328  TIP3      6177            0.0000000000
     37246      6337  TIP3      H1             31.1580652925       28.0445268226      -27.6223049229  TIP3      6177            0.0000000000
     37247      6337  TIP3      H2             31.6474468655       26.8326660355      -28.3691709428  TIP3      6177            0.0000000000
     37248      6338  TIP3      OH2            31.8825579556       23.2905298128      -36.4841588672  TIP3      6178            0.0000000000
     37249      6338  TIP3      H1             31.7386596849       23.8464607484      -35.6905956935  TIP3      6178            0.0000000000
     37250      6338  TIP3      H2             32.3998209094       23.8990389558      -37.0557949034  TIP3      6178            0.0000000000
     37251      6339  TIP3      OH2            27.2818561871       24.2741584127      -39.8823702298  TIP3      6179            0.0000000000
     37252      6339  TIP3      H1             26.8632586362       24.8463110310      -39.1924400125  TIP3      6179            0.0000000000
     37253      6339  TIP3      H2             28.1203562157       24.0116204819      -39.4323197688  TIP3      6179            0.0000000000
     37254      6340  TIP3      OH2            25.2570993337       34.1352157780      -40.5450229864  TIP3      6180            0.0000000000
     37255      6340  TIP3      H1             25.2380654713       35.0695618244      -40.3011739245  TIP3      6180            0.0000000000
     37256      6340  TIP3      H2             26.0302751036       34.0791511914      -41.1640684522  TIP3      6180            0.0000000000
     37257      6341  TIP3      OH2            23.4493105613       27.9576396855      -41.8287483025  TIP3      6181            0.0000000000
     37258      6341  TIP3      H1             23.0636011376       28.8477746110      -41.9616754492  TIP3      6181            0.0000000000
     37259      6341  TIP3      H2             23.3056033017       27.5206811323      -42.6851163319  TIP3      6181            0.0000000000
     37260      6342  TIP3      OH2            24.6374768418       22.5770882892      -32.6233193021  TIP3      6182            0.0000000000
     37261      6342  TIP3      H1             24.4917633395       22.5091719031      -33.5929891396  TIP3      6182            0.0000000000
     37262      6342  TIP3      H2             24.4064545901       21.6790326114      -32.2932740420  TIP3      6182            0.0000000000
     37263      6343  TIP3      OH2            22.5864738618       32.0586317199      -23.7451345746  TIP3      6183            0.0000000000
     37264      6343  TIP3      H1             23.1860117663       31.3020434826      -23.9146058941  TIP3      6183            0.0000000000
     37265      6343  TIP3      H2             21.7554770317       31.6011358149      -23.4852327152  TIP3      6183            0.0000000000
     37266      6344  TIP3      OH2            27.4355205209       33.2783581114      -42.1012367516  TIP3      6184            0.0000000000
     37267      6344  TIP3      H1             27.6253831995       32.6636316811      -41.3819182440  TIP3      6184            0.0000000000
     37268      6344  TIP3      H2             27.8069457849       32.7542793541      -42.8365988365  TIP3      6184            0.0000000000
     37269      6345  TIP3      OH2            29.2803739053       32.4746890861      -25.2646071483  TIP3      6185            0.0000000000
     37270      6345  TIP3      H1             28.7709194062       32.9650442375      -25.9356146979  TIP3      6185            0.0000000000
     37271      6345  TIP3      H2             28.9373608622       31.5593489198      -25.3881414847  TIP3      6185            0.0000000000
     37272      6346  TIP3      OH2            24.0260486271       29.7997458698      -24.6375965951  TIP3      6186            0.0000000000
     37273      6346  TIP3      H1             23.7521576716       29.4335652921      -25.4851541044  TIP3      6186            0.0000000000
     37274      6346  TIP3      H2             23.9276603067       29.0016017801      -24.0603770367  TIP3      6186            0.0000000000
     37275      6347  TIP3      OH2            28.1442951927       31.2067002134      -40.0768945445  TIP3      6187            0.0000000000
     37276      6347  TIP3      H1             28.0472930177       30.5403269304      -39.3759930532  TIP3      6187            0.0000000000
     37277      6347  TIP3      H2             28.8650064494       30.8015385185      -40.5730760479  TIP3      6187            0.0000000000
     37278      6348  TIP3      OH2            27.1371952053       28.7967769507      -27.9259595460  TIP3      6188            0.0000000000
     37279      6348  TIP3      H1             27.2979631653       29.1711520056      -27.0317373995  TIP3      6188            0.0000000000
     37280      6348  TIP3      H2             27.8247870805       29.2565698691      -28.4343340334  TIP3      6188            0.0000000000
     37281      6349  TIP3      OH2            29.6155974016       28.9343007467      -41.8878160396  TIP3      6189            0.0000000000
     37282      6349  TIP3      H1             30.0130360485       29.8088769892      -41.9535936749  TIP3      6189            0.0000000000
     37283      6349  TIP3      H2             30.2116800125       28.5044582476      -41.2209446578  TIP3      6189            0.0000000000
     37284      6350  TIP3      OH2            32.5304171871       31.4935045488      -24.2181352988  TIP3      6190            0.0000000000
     37285      6350  TIP3      H1             33.3304491073       30.9545244358      -24.2975156077  TIP3      6190            0.0000000000
     37286      6350  TIP3      H2             32.1273770673       31.1059590367      -23.4189124823  TIP3      6190            0.0000000000
     37287      6351  TIP3      OH2            28.0807712905       26.5635220789      -26.8338471578  TIP3      6191            0.0000000000
     37288      6351  TIP3      H1             28.2517212731       25.8626401455      -27.5042815874  TIP3      6191            0.0000000000
     37289      6351  TIP3      H2             28.0939722214       27.3753571257      -27.3796232273  TIP3      6191            0.0000000000
     37290      6352  TIP3      OH2            28.5074172088       24.7295861383      -28.7837369033  TIP3      6192            0.0000000000
     37291      6352  TIP3      H1             29.1019636603       25.1838134075      -29.4253199335  TIP3      6192            0.0000000000
     37292      6352  TIP3      H2             27.6292873225       24.7059984051      -29.2393917817  TIP3      6192            0.0000000000
     37293      6353  TIP3      OH2            29.5821074932       30.4195844864      -28.3345698457  TIP3      6193            0.0000000000
     37294      6353  TIP3      H1             30.1538239133       29.9690883044      -28.9720716948  TIP3      6193            0.0000000000
     37295      6353  TIP3      H2             29.1801459048       31.1507437726      -28.8715716473  TIP3      6193            0.0000000000
     37296      6354  TIP3      OH2            34.0454779194       27.9977549804      -23.5462134903  TIP3      6194            0.0000000000
     37297      6354  TIP3      H1             34.3149785557       27.5459545468      -24.3694924568  TIP3      6194            0.0000000000
     37298      6354  TIP3      H2             34.9136248658       28.1342738841      -23.1169027458  TIP3      6194            0.0000000000
     37299      6355  TIP3      OH2            26.5193319250       26.9860708054      -24.4986472175  TIP3      6195            0.0000000000
     37300      6355  TIP3      H1             25.6152383245       26.6440798583      -24.6418841888  TIP3      6195            0.0000000000
     37301      6355  TIP3      H2             26.9392593053       26.8238600855      -25.3727233051  TIP3      6195            0.0000000000
     37302      6356  TIP3      OH2            29.0937600713       21.9886999152      -29.0026704922  TIP3      6196            0.0000000000
     37303      6356  TIP3      H1             28.9535867963       22.9586846932      -28.9808525712  TIP3      6196            0.0000000000
     37304      6356  TIP3      H2             28.2545720429       21.6729752274      -29.3697447782  TIP3      6196            0.0000000000
     37305      6357  TIP3      OH2            30.0440373763       26.3558878383      -25.1299326155  TIP3      6197            0.0000000000
     37306      6357  TIP3      H1             29.4078903210       26.4367021827      -24.4130484942  TIP3      6197            0.0000000000
     37307      6357  TIP3      H2             29.4506309283       26.3971013066      -25.9185457104  TIP3      6197            0.0000000000
     37308      6358  TIP3      OH2            32.7133336913       25.9203060032      -25.9028363892  TIP3      6198            0.0000000000
     37309      6358  TIP3      H1             31.8069179127       25.7255959158      -25.5887422347  TIP3      6198            0.0000000000
     37310      6358  TIP3      H2             33.2384957836       25.1650980500      -25.5715806570  TIP3      6198            0.0000000000
     37311      6359  TIP3      OH2            34.3042055623       24.1080017667      -24.6178479911  TIP3      6199            0.0000000000
     37312      6359  TIP3      H1             34.1657279905       23.1735667211      -24.8520877224  TIP3      6199            0.0000000000
     37313      6359  TIP3      H2             34.2913626194       24.0492373457      -23.6474170867  TIP3      6199            0.0000000000
     37314      6360  TIP3      OH2            24.2835535393       25.0061115027      -24.4817852557  TIP3      6200            0.0000000000
     37315      6360  TIP3      H1             24.4878090154       24.3179951106      -25.1370554434  TIP3      6200            0.0000000000
     37316      6360  TIP3      H2             24.5847948669       24.5749369646      -23.6571588414  TIP3      6200            0.0000000000
     37317      6361  TIP3      OH2            29.0482011542       21.9636176487      -26.2333518788  TIP3      6201            0.0000000000
     37318      6361  TIP3      H1             29.7720426212       21.3572112363      -25.9812580479  TIP3      6201            0.0000000000
     37319      6361  TIP3      H2             29.0415742176       21.8208228581      -27.1978075569  TIP3      6201            0.0000000000
     37320      6362  TIP3      OH2            22.7877751539       33.7713656006      -41.4242319162  TIP3      6202            0.0000000000
     37321      6362  TIP3      H1             23.6978967827       34.0184691716      -41.1425103335  TIP3      6202            0.0000000000
     37322      6362  TIP3      H2             22.6896437731       34.3948078202      -42.1718914084  TIP3      6202            0.0000000000
     37323      6363  TIP3      OH2            22.3356404453       31.4638093119      -32.0907271938  TIP3      6203            0.0000000000
     37324      6363  TIP3      H1             22.8522988304       31.3250536027      -32.8987829458  TIP3      6203            0.0000000000
     37325      6363  TIP3      H2             23.0557002319       31.4118157830      -31.4198521385  TIP3      6203            0.0000000000
     37326      6364  TIP3      OH2            22.2044507677       26.3899770032      -25.6953881637  TIP3      6204            0.0000000000
     37327      6364  TIP3      H1             22.9456564441       25.9831144678      -25.1808245605  TIP3      6204            0.0000000000
     37328      6364  TIP3      H2             21.5668492441       25.6536033898      -25.6225797729  TIP3      6204            0.0000000000
     37329      6365  TIP3      OH2            23.3201935913       24.8774985828      -32.1409752156  TIP3      6205            0.0000000000
     37330      6365  TIP3      H1             23.7464699670       23.9845825414      -32.0880630479  TIP3      6205            0.0000000000
     37331      6365  TIP3      H2             24.0364855681       25.4446360094      -32.4659101047  TIP3      6205            0.0000000000
     37332      6366  TIP3      OH2            21.7248131827       27.7164795372      -31.5213448350  TIP3      6206            0.0000000000
     37333      6366  TIP3      H1             22.1411741928       27.0026233010      -32.0243636834  TIP3      6206            0.0000000000
     37334      6366  TIP3      H2             22.4397992077       28.3795068295      -31.5285830139  TIP3      6206            0.0000000000
     37335      6367  TIP3      OH2            21.8340756765       24.2331135554      -37.9774694658  TIP3      6207            0.0000000000
     37336      6367  TIP3      H1             20.8877700225       24.4159617021      -37.9747819184  TIP3      6207            0.0000000000
     37337      6367  TIP3      H2             22.1384025013       24.8053924023      -38.7199618770  TIP3      6207            0.0000000000
     37338      6368  TIP3      OH2            22.0911111233       22.4728588589      -29.4527768482  TIP3      6208            0.0000000000
     37339      6368  TIP3      H1             21.5743557626       22.3082041221      -28.6315667884  TIP3      6208            0.0000000000
     37340      6368  TIP3      H2             22.0327497639       23.4305674743      -29.5348762243  TIP3      6208            0.0000000000
     37341      6369  TIP3      OH2            32.0404663099       22.8639683893      -33.0725039784  TIP3      6209            0.0000000000
     37342      6369  TIP3      H1             31.1078020429       22.5566039095      -32.9983360017  TIP3      6209            0.0000000000
     37343      6369  TIP3      H2             31.8904593533       23.6932423256      -33.5858578396  TIP3      6209            0.0000000000
     37344      6370  TIP3      OH2            23.9773002559       22.5473347160      -35.1880548730  TIP3      6210            0.0000000000
     37345      6370  TIP3      H1             23.0633879199       22.3340775730      -35.4848227273  TIP3      6210            0.0000000000
     37346      6370  TIP3      H2             24.3923145778       21.6614827467      -35.3138659462  TIP3      6210            0.0000000000
     37347      6371  TIP3      OH2            22.7479749593       22.3958788707      -39.7287150295  TIP3      6211            0.0000000000
     37348      6371  TIP3      H1             23.4172968563       22.8069460058      -40.3253790873  TIP3      6211            0.0000000000
     37349      6371  TIP3      H2             22.4086179344       23.1634552350      -39.2251486531  TIP3      6211            0.0000000000
     37350      6372  TIP3      OH2            28.7232745239       21.8046954712      -35.4041010667  TIP3      6212            0.0000000000
     37351      6372  TIP3      H1             29.3945619386       22.1402530942      -36.0108360471  TIP3      6212            0.0000000000
     37352      6372  TIP3      H2             29.0222003556       22.2022371541      -34.5648604787  TIP3      6212            0.0000000000
     37353      6373  TIP3      OH2            34.5261813019       21.6612414475      -33.7593629523  TIP3      6213            0.0000000000
     37354      6373  TIP3      H1             34.6272272060       22.5772824422      -34.0851609383  TIP3      6213            0.0000000000
     37355      6373  TIP3      H2             33.5662114000       21.5628293852      -33.6137936350  TIP3      6213            0.0000000000
     37356      6374  TIP3      OH2            24.8716974674       23.4158313032      -41.1196376234  TIP3      6214            0.0000000000
     37357      6374  TIP3      H1             25.5232740238       22.7481579589      -41.3698085187  TIP3      6214            0.0000000000
     37358      6374  TIP3      H2             25.4935870973       24.1072246004      -40.8320317428  TIP3      6214            0.0000000000
     37359      6375  TIP3      OH2            29.7777969907       24.0063704716      -38.5181881170  TIP3      6215            0.0000000000
     37360      6375  TIP3      H1             30.4465248421       23.6072478417      -37.9473448177  TIP3      6215            0.0000000000
     37361      6375  TIP3      H2             30.1358228726       24.9076547024      -38.5775524206  TIP3      6215            0.0000000000
     37362      6376  TIP3      OH2            23.6464182984       22.7169203889      -26.5724343112  TIP3      6216            0.0000000000
     37363      6376  TIP3      H1             23.0020320395       21.9794436227      -26.5149538132  TIP3      6216            0.0000000000
     37364      6376  TIP3      H2             24.2928826797       22.4265928462      -25.9200357319  TIP3      6216            0.0000000000
     37365      6377  TIP3      OH2            26.1739162176       22.2288319972      -24.3570818242  TIP3      6217            0.0000000000
     37366      6377  TIP3      H1             26.8177600104       22.4200356901      -25.0701819510  TIP3      6217            0.0000000000
     37367      6377  TIP3      H2             26.4528222956       21.3135709824      -24.1235314541  TIP3      6217            0.0000000000
     37368      6378  TIP3      OH2            34.4868675059       21.4270501920      -23.7615476268  TIP3      6218            0.0000000000
     37369      6378  TIP3      H1             34.7078343656       20.8563257012      -22.9960204248  TIP3      6218            0.0000000000
     37370      6378  TIP3      H2             33.9273079396       20.8070033442      -24.2703190228  TIP3      6218            0.0000000000
     37371      6379  TIP3      OH2           -24.0609565557      -27.0771930778      -22.9861738019  TIP3      6219            0.0000000000
     37372      6379  TIP3      H1            -23.7344518630      -26.8851060616      -22.0820448428  TIP3      6219            0.0000000000
     37373      6379  TIP3      H2            -23.2854763332      -27.5770124906      -23.3323102377  TIP3      6219            0.0000000000
     37374      6380  TIP3      OH2           -22.1661839308      -26.4965061224      -20.9481640253  TIP3      6220            0.0000000000
     37375      6380  TIP3      H1            -21.4248768329      -26.8437519091      -20.4328730685  TIP3      6220            0.0000000000
     37376      6380  TIP3      H2            -21.7512187217      -25.8098988111      -21.5097727548  TIP3      6220            0.0000000000
     37377      6381  TIP3      OH2           -17.2780332288      -20.2316857653      -22.9124609692  TIP3      6221            0.0000000000
     37378      6381  TIP3      H1            -17.0482788376      -19.3655022014      -22.5044193881  TIP3      6221            0.0000000000
     37379      6381  TIP3      H2            -16.5917734576      -20.8229819430      -22.5362722084  TIP3      6221            0.0000000000
     37380      6382  TIP3      OH2           -22.1203857313      -17.3442828752      -22.4285003136  TIP3      6222            0.0000000000
     37381      6382  TIP3      H1            -21.3619588834      -17.8053995921      -22.8318360232  TIP3      6222            0.0000000000
     37382      6382  TIP3      H2            -21.6590794647      -16.6064230120      -21.9546770343  TIP3      6222            0.0000000000
     37383      6383  TIP3      OH2           -21.1000161019      -24.8589104157      -23.0081440223  TIP3      6223            0.0000000000
     37384      6383  TIP3      H1            -21.2319236428      -25.2636682394      -23.8834806556  TIP3      6223            0.0000000000
     37385      6383  TIP3      H2            -20.1331889782      -24.9869008686      -22.9671891522  TIP3      6223            0.0000000000
     37386      6384  TIP3      OH2           -25.0856249003      -31.8822153650      -22.7933066234  TIP3      6224            0.0000000000
     37387      6384  TIP3      H1            -25.2706422980      -31.7381294267      -21.8589142331  TIP3      6224            0.0000000000
     37388      6384  TIP3      H2            -25.8131686137      -32.5064871045      -23.0196189934  TIP3      6224            0.0000000000
     37389      6385  TIP3      OH2           -28.4723598042      -31.0916566021      -23.5340266221  TIP3      6225            0.0000000000
     37390      6385  TIP3      H1            -28.7892468218      -31.0943172015      -22.6300899665  TIP3      6225            0.0000000000
     37391      6385  TIP3      H2            -28.8612686861      -30.2458919042      -23.8495272605  TIP3      6225            0.0000000000
     37392      6386  TIP3      OH2           -22.2486185337      -30.6868755078      -22.0037794518  TIP3      6226            0.0000000000
     37393      6386  TIP3      H1            -23.2144960664      -30.5545868072      -22.0306086919  TIP3      6226            0.0000000000
     37394      6386  TIP3      H2            -22.0150899684      -30.3212822347      -21.1297529586  TIP3      6226            0.0000000000
     37395      6387  TIP3      OH2           -24.3831173574      -22.0595532953      -20.9436253292  TIP3      6227            0.0000000000
     37396      6387  TIP3      H1            -25.1455306053      -21.4685887211      -20.7553644659  TIP3      6227            0.0000000000
     37397      6387  TIP3      H2            -24.7907306256      -22.9107609804      -20.7466920976  TIP3      6227            0.0000000000
     37398      6388  TIP3      OH2           -16.8376703735      -17.7400921729      -22.1829932788  TIP3      6228            0.0000000000
     37399      6388  TIP3      H1            -16.2174372469      -17.0524249060      -22.4616663128  TIP3      6228            0.0000000000
     37400      6388  TIP3      H2            -17.4633740279      -17.2229350289      -21.6566134906  TIP3      6228            0.0000000000
     37401      6389  TIP3      OH2           -26.7490575955      -21.1706942653      -23.2535741628  TIP3      6229            0.0000000000
     37402      6389  TIP3      H1            -27.0677618172      -21.9462625229      -23.7461196106  TIP3      6229            0.0000000000
     37403      6389  TIP3      H2            -27.2483378635      -21.2842352888      -22.4205099541  TIP3      6229            0.0000000000
     37404      6390  TIP3      OH2           -25.1827856592      -18.9607434116      -23.6148508289  TIP3      6230            0.0000000000
     37405      6390  TIP3      H1            -25.5432132771      -19.7980004864      -23.2453034961  TIP3      6230            0.0000000000
     37406      6390  TIP3      H2            -24.2318425978      -19.1431837923      -23.7257914100  TIP3      6230            0.0000000000
     37407      6391  TIP3      OH2           -20.2589449749      -19.1498998293      -23.5299699824  TIP3      6231            0.0000000000
     37408      6391  TIP3      H1            -19.6858963594      -19.5602487366      -22.8696423085  TIP3      6231            0.0000000000
     37409      6391  TIP3      H2            -19.6303994924      -19.0924142832      -24.2861476080  TIP3      6231            0.0000000000
     37410      6392  TIP3      OH2           -29.3435011091      -23.5983619920      -23.5741409138  TIP3      6232            0.0000000000
     37411      6392  TIP3      H1            -29.2803124535      -24.2260320361      -22.8308651611  TIP3      6232            0.0000000000
     37412      6392  TIP3      H2            -28.5699155280      -23.8438298246      -24.1220051180  TIP3      6232            0.0000000000
     37413      6393  TIP3      OH2           -23.3992199147      -22.2016514993      -23.9230176923  TIP3      6233            0.0000000000
     37414      6393  TIP3      H1            -23.9134162098      -22.0537415934      -23.1176306270  TIP3      6233            0.0000000000
     37415      6393  TIP3      H2            -23.7698552957      -23.0627940457      -24.2276029801  TIP3      6233            0.0000000000
     37416      6394  TIP3      OH2           -17.7239893700      -24.3596768772      -24.3742556251  TIP3      6234            0.0000000000
     37417      6394  TIP3      H1            -17.8526741968      -25.1408159559      -23.7895519952  TIP3      6234            0.0000000000
     37418      6394  TIP3      H2            -17.9885340335      -23.6231894722      -23.7789163638  TIP3      6234            0.0000000000
     37419      6395  TIP3      OH2           -34.0579860689      -21.7337778215      -22.0973339764  TIP3      6235            0.0000000000
     37420      6395  TIP3      H1            -33.1114604134      -21.9367923452      -22.0177434213  TIP3      6235            0.0000000000
     37421      6395  TIP3      H2            -34.2734324851      -22.3254028779      -22.8458077777  TIP3      6235            0.0000000000
     37422      6396  TIP3      OH2           -16.7079905273      -25.6969803411      -21.5183626271  TIP3      6236            0.0000000000
     37423      6396  TIP3      H1            -17.4890570219      -26.2740197698      -21.6644478781  TIP3      6236            0.0000000000
     37424      6396  TIP3      H2            -16.9445641791      -25.2129034928      -20.7030702375  TIP3      6236            0.0000000000
     37425      6397  TIP3      OH2           -17.2770967767      -29.4719747313      -22.8488007332  TIP3      6237            0.0000000000
     37426      6397  TIP3      H1            -17.4272576639      -28.5783762848      -22.4924414498  TIP3      6237            0.0000000000
     37427      6397  TIP3      H2            -17.9759426697      -29.4421284056      -23.5095007270  TIP3      6237            0.0000000000
     37428      6398  TIP3      OH2           -19.2627910857      -31.7504985711      -24.2395777721  TIP3      6238            0.0000000000
     37429      6398  TIP3      H1            -18.5328666728      -31.7012545279      -23.5882982717  TIP3      6238            0.0000000000
     37430      6398  TIP3      H2            -20.0180529144      -31.5282415261      -23.6865656889  TIP3      6238            0.0000000000
     37431      6399  TIP3      OH2           -32.2097210322      -18.3034199906      -23.2838827545  TIP3      6239            0.0000000000
     37432      6399  TIP3      H1            -32.0938482065      -17.9469799223      -22.3869636562  TIP3      6239            0.0000000000
     37433      6399  TIP3      H2            -31.3536072568      -18.7368347446      -23.4559992652  TIP3      6239            0.0000000000
     37434      6400  TIP3      OH2            -6.2723839713      -27.2452583396      -22.4818767733  TIP3      6240            0.0000000000
     37435      6400  TIP3      H1             -5.5840677529      -26.9275147097      -21.8643118824  TIP3      6240            0.0000000000
     37436      6400  TIP3      H2             -5.9097971446      -28.1268642029      -22.6966431220  TIP3      6240            0.0000000000
     37437      6401  TIP3      OH2             0.5297448808      -34.8409037427      -21.2594489121  TIP3      6241            0.0000000000
     37438      6401  TIP3      H1              1.3151880574      -34.9395764801      -20.7030574058  TIP3      6241            0.0000000000
     37439      6401  TIP3      H2              0.7561421403      -34.0041202829      -21.7134315768  TIP3      6241            0.0000000000
     37440      6402  TIP3      OH2             1.1514032080      -20.1065417043      -21.4338203981  TIP3      6242            0.0000000000
     37441      6402  TIP3      H1              1.6043524915      -19.5181647873      -20.8119843371  TIP3      6242            0.0000000000
     37442      6402  TIP3      H2              1.7300747076      -20.0307409747      -22.2331388725  TIP3      6242            0.0000000000
     37443      6403  TIP3      OH2            -2.7337483560      -17.8702341499      -22.1180152621  TIP3      6243            0.0000000000
     37444      6403  TIP3      H1             -2.0538808179      -18.4679256285      -22.4857869899  TIP3      6243            0.0000000000
     37445      6403  TIP3      H2             -2.5177225338      -17.8676512111      -21.1636996429  TIP3      6243            0.0000000000
     37446      6404  TIP3      OH2            -1.9490917206      -25.0573890874      -22.7794367575  TIP3      6244            0.0000000000
     37447      6404  TIP3      H1             -2.5621059164      -25.0352922705      -23.5373154370  TIP3      6244            0.0000000000
     37448      6404  TIP3      H2             -1.9315284072      -24.1305038606      -22.5310696378  TIP3      6244            0.0000000000
     37449      6405  TIP3      OH2            -6.9966175306      -30.9776885977      -22.0041823564  TIP3      6245            0.0000000000
     37450      6405  TIP3      H1             -6.2832791537      -31.3786759496      -21.4967436984  TIP3      6245            0.0000000000
     37451      6405  TIP3      H2             -7.4239107663      -31.7637701920      -22.4077047863  TIP3      6245            0.0000000000
     37452      6406  TIP3      OH2           -10.4704384888      -31.1492741189      -23.0903392512  TIP3      6246            0.0000000000
     37453      6406  TIP3      H1            -10.5904143859      -32.0972527555      -22.9377183473  TIP3      6246            0.0000000000
     37454      6406  TIP3      H2            -10.8872782463      -31.0027583518      -23.9519796900  TIP3      6246            0.0000000000
     37455      6407  TIP3      OH2           -14.0670807529      -25.6496626812      -22.4490575511  TIP3      6247            0.0000000000
     37456      6407  TIP3      H1            -13.7898780457      -25.2277892253      -21.5956904512  TIP3      6247            0.0000000000
     37457      6407  TIP3      H2            -15.0425414407      -25.6310913762      -22.3085602685  TIP3      6247            0.0000000000
     37458      6408  TIP3      OH2             2.0494910356      -17.1865626334      -22.0989771396  TIP3      6248            0.0000000000
     37459      6408  TIP3      H1              2.5082122308      -17.9558211784      -21.7355016179  TIP3      6248            0.0000000000
     37460      6408  TIP3      H2              1.4576877616      -16.9269801136      -21.3627963124  TIP3      6248            0.0000000000
     37461      6409  TIP3      OH2            -7.7805863171      -20.7313822754      -23.4722683641  TIP3      6249            0.0000000000
     37462      6409  TIP3      H1             -7.9595080187      -21.0565509090      -24.3642836247  TIP3      6249            0.0000000000
     37463      6409  TIP3      H2             -8.6684872813      -20.7194934797      -23.0996138042  TIP3      6249            0.0000000000
     37464      6410  TIP3      OH2            -9.3156310074      -21.5023963327      -20.8970249706  TIP3      6250            0.0000000000
     37465      6410  TIP3      H1             -8.7583869014      -22.0674481724      -20.3581970220  TIP3      6250            0.0000000000
     37466      6410  TIP3      H2             -9.2667566725      -20.6684088533      -20.4238440471  TIP3      6250            0.0000000000
     37467      6411  TIP3      OH2           -11.7490604949      -21.4084049832      -22.0551580368  TIP3      6251            0.0000000000
     37468      6411  TIP3      H1            -10.8035183630      -21.4400988264      -21.7915704788  TIP3      6251            0.0000000000
     37469      6411  TIP3      H2            -11.8039341489      -22.3045672915      -22.4206187854  TIP3      6251            0.0000000000
     37470      6412  TIP3      OH2           -13.9454862951      -28.4826539188      -22.9090366900  TIP3      6252            0.0000000000
     37471      6412  TIP3      H1            -13.8219600786      -27.6099394383      -22.4725503708  TIP3      6252            0.0000000000
     37472      6412  TIP3      H2            -14.8836626951      -28.6470750484      -22.7111529140  TIP3      6252            0.0000000000
     37473      6413  TIP3      OH2            -1.2046646656      -19.6986174847      -23.4235658940  TIP3      6253            0.0000000000
     37474      6413  TIP3      H1             -0.3599517217      -19.7685506479      -22.9394733532  TIP3      6253            0.0000000000
     37475      6413  TIP3      H2             -0.8910958307      -19.2389915033      -24.2429399430  TIP3      6253            0.0000000000
     37476      6414  TIP3      OH2           -10.4814510631      -23.5516783831      -23.3834277785  TIP3      6254            0.0000000000
     37477      6414  TIP3      H1            -10.9572964019      -24.3857339985      -23.4318058290  TIP3      6254            0.0000000000
     37478      6414  TIP3      H2             -9.6906606270      -23.7080403796      -23.9487637900  TIP3      6254            0.0000000000
     37479      6415  TIP3      OH2             1.0856353220      -24.2269317609      -22.7488142412  TIP3      6255            0.0000000000
     37480      6415  TIP3      H1              1.9771625833      -23.9745907496      -23.0786669920  TIP3      6255            0.0000000000
     37481      6415  TIP3      H2              0.6069377053      -23.4581776333      -23.1418802278  TIP3      6255            0.0000000000
     37482      6416  TIP3      OH2            -8.6044792504      -16.4716295423      -21.5875847641  TIP3      6256            0.0000000000
     37483      6416  TIP3      H1             -7.9210930279      -16.1353804647      -20.9979755047  TIP3      6256            0.0000000000
     37484      6416  TIP3      H2             -8.6602758670      -15.7329020543      -22.2176014487  TIP3      6256            0.0000000000
     37485      6417  TIP3      OH2           -15.2371390914      -22.3047185516      -22.6093418181  TIP3      6257            0.0000000000
     37486      6417  TIP3      H1            -14.4929978828      -22.4401023970      -22.0012144619  TIP3      6257            0.0000000000
     37487      6417  TIP3      H2            -15.2685563729      -23.1804097033      -23.0308148001  TIP3      6257            0.0000000000
     37488      6418  TIP3      OH2             0.8133260838      -28.6477983608      -22.6077600596  TIP3      6258            0.0000000000
     37489      6418  TIP3      H1              1.4125136751      -28.6832711961      -23.3814035602  TIP3      6258            0.0000000000
     37490      6418  TIP3      H2              0.5343661284      -29.5807164905      -22.5169724657  TIP3      6258            0.0000000000
     37491      6419  TIP3      OH2            -0.1501027547      -31.1700117966      -22.4072725192  TIP3      6259            0.0000000000
     37492      6419  TIP3      H1              0.6131164654      -31.7219727828      -22.6535189257  TIP3      6259            0.0000000000
     37493      6419  TIP3      H2             -0.7383654123      -31.2139247110      -23.1946442712  TIP3      6259            0.0000000000
     37494      6420  TIP3      OH2             2.2345662352      -32.9864937630      -21.6607438610  TIP3      6260            0.0000000000
     37495      6420  TIP3      H1              2.5928938516      -33.5231347771      -22.4056717942  TIP3      6260            0.0000000000
     37496      6420  TIP3      H2              2.7326703713      -32.1524464443      -21.8456911926  TIP3      6260            0.0000000000
     37497      6421  TIP3      OH2            18.2634710491      -34.1010434870      -21.9355888772  TIP3      6261            0.0000000000
     37498      6421  TIP3      H1             18.1030168604      -33.9333948814      -20.9757962712  TIP3      6261            0.0000000000
     37499      6421  TIP3      H2             19.1963105487      -34.3029216795      -21.8380940616  TIP3      6261            0.0000000000
     37500      6422  TIP3      OH2            20.5672463811      -19.8959766041      -22.7185531308  TIP3      6262            0.0000000000
     37501      6422  TIP3      H1             20.2920576291      -20.4933299053      -22.0012569551  TIP3      6262            0.0000000000
     37502      6422  TIP3      H2             21.5307848269      -20.0365025259      -22.6937224320  TIP3      6262            0.0000000000
     37503      6423  TIP3      OH2            15.5710406999      -17.5940208472      -21.9688260944  TIP3      6263            0.0000000000
     37504      6423  TIP3      H1             16.1362586499      -18.2452770035      -22.4381595868  TIP3      6263            0.0000000000
     37505      6423  TIP3      H2             14.6737677089      -17.9197841770      -22.1713774823  TIP3      6263            0.0000000000
     37506      6424  TIP3      OH2            16.9860033944      -24.7194586255      -23.1297633516  TIP3      6264            0.0000000000
     37507      6424  TIP3      H1             17.1764076231      -25.3802664528      -23.8154204536  TIP3      6264            0.0000000000
     37508      6424  TIP3      H2             17.8687116202      -24.5427385619      -22.7763743056  TIP3      6264            0.0000000000
     37509      6425  TIP3      OH2            12.8324540811      -32.0434888290      -22.4406912668  TIP3      6265            0.0000000000
     37510      6425  TIP3      H1             12.4015984457      -31.6308609840      -21.6840096295  TIP3      6265            0.0000000000
     37511      6425  TIP3      H2             12.1530105862      -32.6181128578      -22.8318932671  TIP3      6265            0.0000000000
     37512      6426  TIP3      OH2             9.1147711584      -31.2325419404      -22.9654574229  TIP3      6266            0.0000000000
     37513      6426  TIP3      H1              8.6188476399      -31.3385830096      -22.1425094933  TIP3      6266            0.0000000000
     37514      6426  TIP3      H2              8.5238730249      -30.5807697562      -23.4344329609  TIP3      6266            0.0000000000
     37515      6427  TIP3      OH2             8.0175368942      -28.1394986681      -21.7112398697  TIP3      6267            0.0000000000
     37516      6427  TIP3      H1              7.2651134193      -28.7578188796      -21.6482672664  TIP3      6267            0.0000000000
     37517      6427  TIP3      H2              8.1446986997      -28.0491946442      -22.6637255387  TIP3      6267            0.0000000000
     37518      6428  TIP3      OH2            16.9538044447      -21.6378390742      -22.3969495489  TIP3      6268            0.0000000000
     37519      6428  TIP3      H1             16.7921273034      -21.8596935959      -21.4677723075  TIP3      6268            0.0000000000
     37520      6428  TIP3      H2             16.1951667886      -22.1287733401      -22.7996315137  TIP3      6268            0.0000000000
     37521      6429  TIP3      OH2            10.6099607455      -20.8160082205      -23.2295405483  TIP3      6269            0.0000000000
     37522      6429  TIP3      H1             11.0747806779      -21.1036892106      -24.0489953475  TIP3      6269            0.0000000000
     37523      6429  TIP3      H2              9.8555043438      -21.4232709647      -23.2542264191  TIP3      6269            0.0000000000
     37524      6430  TIP3      OH2             9.6015054700      -21.9183937143      -20.7199206845  TIP3      6270            0.0000000000
     37525      6430  TIP3      H1             10.2767784122      -22.0879786840      -21.3991584789  TIP3      6270            0.0000000000
     37526      6430  TIP3      H2              9.5000230265      -20.9553376380      -20.7261700475  TIP3      6270            0.0000000000
     37527      6431  TIP3      OH2            12.4827862715      -19.3076382137      -20.2522167710  TIP3      6271            0.0000000000
     37528      6431  TIP3      H1             11.5394236319      -19.1159935860      -20.4298793861  TIP3      6271            0.0000000000
     37529      6431  TIP3      H2             12.8390773296      -19.3988720846      -21.1585541519  TIP3      6271            0.0000000000
     37530      6432  TIP3      OH2             9.8177684027      -18.8120848959      -20.6750560841  TIP3      6272            0.0000000000
     37531      6432  TIP3      H1              9.6023414204      -18.7085379245      -21.6208972038  TIP3      6272            0.0000000000
     37532      6432  TIP3      H2              8.9993139972      -18.5194658135      -20.2530158068  TIP3      6272            0.0000000000
     37533      6433  TIP3      OH2            13.2449618704      -19.3749468795      -22.9114793291  TIP3      6273            0.0000000000
     37534      6433  TIP3      H1             12.5701893540      -20.0170355635      -23.2398826714  TIP3      6273            0.0000000000
     37535      6433  TIP3      H2             13.5829397414      -19.0469601675      -23.7634772499  TIP3      6273            0.0000000000
     37536      6434  TIP3      OH2            17.4482185490      -19.1296233094      -23.3067877626  TIP3      6274            0.0000000000
     37537      6434  TIP3      H1             17.3422253305      -19.9816943806      -22.8349915493  TIP3      6274            0.0000000000
     37538      6434  TIP3      H2             18.2219030529      -19.3261043302      -23.8731947799  TIP3      6274            0.0000000000
     37539      6435  TIP3      OH2             8.8140477671      -23.8949593458      -23.6932298156  TIP3      6275            0.0000000000
     37540      6435  TIP3      H1              9.0270905567      -24.5640637946      -23.0195608261  TIP3      6275            0.0000000000
     37541      6435  TIP3      H2              9.6497631368      -23.8880160654      -24.2110635683  TIP3      6275            0.0000000000
     37542      6436  TIP3      OH2            14.3397624219      -22.6200162309      -23.1065455732  TIP3      6276            0.0000000000
     37543      6436  TIP3      H1             13.7456163383      -22.0352906639      -23.6269916197  TIP3      6276            0.0000000000
     37544      6436  TIP3      H2             13.8688919810      -23.4675986678      -23.1962936076  TIP3      6276            0.0000000000
     37545      6437  TIP3      OH2            19.9863586240      -24.5617596071      -23.4699603816  TIP3      6277            0.0000000000
     37546      6437  TIP3      H1             19.4424574908      -24.3684685973      -24.2438541848  TIP3      6277            0.0000000000
     37547      6437  TIP3      H2             20.0745493039      -23.6446296879      -23.1240244542  TIP3      6277            0.0000000000
     37548      6438  TIP3      OH2            18.9742433055      -30.9939829995      -23.5414256821  TIP3      6278            0.0000000000
     37549      6438  TIP3      H1             19.7410721403      -31.2171770261      -22.9682683030  TIP3      6278            0.0000000000
     37550      6438  TIP3      H2             18.2535348450      -31.2756005890      -22.9566346153  TIP3      6278            0.0000000000
     37551      6439  TIP3      OH2            20.9531032074      -32.4065125767      -22.2145767928  TIP3      6279            0.0000000000
     37552      6439  TIP3      H1             20.9828154916      -33.3239290690      -22.5470431770  TIP3      6279            0.0000000000
     37553      6439  TIP3      H2             21.6403079944      -32.4404094872      -21.5163154970  TIP3      6279            0.0000000000
     37554      6440  TIP3      OH2             5.7503199751      -17.3496523496      -22.6249343200  TIP3      6280            0.0000000000
     37555      6440  TIP3      H1              5.1829389419      -17.3555062796      -21.8341334625  TIP3      6280            0.0000000000
     37556      6440  TIP3      H2              6.0427159653      -18.2853600419      -22.5684523728  TIP3      6280            0.0000000000
     37557      6441  TIP3      OH2            31.6926130817      -27.8338093940      -22.7544183038  TIP3      6281            0.0000000000
     37558      6441  TIP3      H1             32.5836062444      -27.4274195243      -22.6804889646  TIP3      6281            0.0000000000
     37559      6441  TIP3      H2             31.9112650882      -28.7803762130      -22.7063561646  TIP3      6281            0.0000000000
     37560      6442  TIP3      OH2            33.8621001196      -26.0282314081      -22.5695892252  TIP3      6282            0.0000000000
     37561      6442  TIP3      H1             34.0488641957      -25.2903816865      -21.9722473037  TIP3      6282            0.0000000000
     37562      6442  TIP3      H2             34.6496200984      -26.5648092122      -22.3253088272  TIP3      6282            0.0000000000
     37563      6443  TIP3      OH2            31.0483622088      -30.9497141514      -22.3902096898  TIP3      6283            0.0000000000
     37564      6443  TIP3      H1             30.5979369259      -30.9076853138      -21.5297780359  TIP3      6283            0.0000000000
     37565      6443  TIP3      H2             31.0170447053      -31.9214363507      -22.4771227500  TIP3      6283            0.0000000000
     37566      6444  TIP3      OH2            27.7443958330      -31.2311818310      -23.1532229319  TIP3      6284            0.0000000000
     37567      6444  TIP3      H1             27.1338493546      -31.6990014944      -22.5376781361  TIP3      6284            0.0000000000
     37568      6444  TIP3      H2             27.6539519631      -30.2906720750      -22.9299826262  TIP3      6284            0.0000000000
     37569      6445  TIP3      OH2            33.5503387379      -31.3272294736      -21.1387507369  TIP3      6285            0.0000000000
     37570      6445  TIP3      H1             32.8531178279      -31.0014738465      -21.7290231634  TIP3      6285            0.0000000000
     37571      6445  TIP3      H2             34.2135507266      -30.6096220048      -21.1096090099  TIP3      6285            0.0000000000
     37572      6446  TIP3      OH2           -34.5229371416      -29.6249426390      -20.5088082532  TIP3      6286            0.0000000000
     37573      6446  TIP3      H1            -34.8336980678      -29.3691422384      -19.6176293566  TIP3      6286            0.0000000000
     37574      6446  TIP3      H2            -34.0066594072      -28.8265590793      -20.7445537473  TIP3      6286            0.0000000000
     37575      6447  TIP3      OH2            31.9830787643      -22.1511515589      -21.5696407691  TIP3      6287            0.0000000000
     37576      6447  TIP3      H1             32.7594174768      -21.6398918611      -21.3130897867  TIP3      6287            0.0000000000
     37577      6447  TIP3      H2             31.6814771820      -22.4878369173      -20.7210420243  TIP3      6287            0.0000000000
     37578      6448  TIP3      OH2            31.9787688423      -19.0217824780      -23.8125882909  TIP3      6288            0.0000000000
     37579      6448  TIP3      H1             31.1484254595      -19.4662298046      -23.6007300537  TIP3      6288            0.0000000000
     37580      6448  TIP3      H2             32.5284499192      -19.7336825612      -24.1580959734  TIP3      6288            0.0000000000
     37581      6449  TIP3      OH2            27.7596529488      -23.1273564752      -22.9649927769  TIP3      6289            0.0000000000
     37582      6449  TIP3      H1             27.1352304863      -23.7785714651      -23.3530833945  TIP3      6289            0.0000000000
     37583      6449  TIP3      H2             28.3923922199      -23.0203707717      -23.7029628306  TIP3      6289            0.0000000000
     37584      6450  TIP3      OH2            32.8747617860      -22.2079540213      -24.1093502993  TIP3      6290            0.0000000000
     37585      6450  TIP3      H1             32.5004696502      -22.2605312377      -23.1996087480  TIP3      6290            0.0000000000
     37586      6450  TIP3      H2             32.3790359932      -22.9376478529      -24.5316973654  TIP3      6290            0.0000000000
     37587      6451  TIP3      OH2            28.8742889035      -25.7658154318      -21.0029246790  TIP3      6291            0.0000000000
     37588      6451  TIP3      H1             28.1800166459      -25.1902979365      -21.3626694619  TIP3      6291            0.0000000000
     37589      6451  TIP3      H2             28.9406495691      -26.4341065369      -21.7114420227  TIP3      6291            0.0000000000
     37590      6452  TIP3      OH2            28.9835208419      -27.5646923583      -23.1185268827  TIP3      6292            0.0000000000
     37591      6452  TIP3      H1             28.5120646312      -26.9463859296      -23.7098106794  TIP3      6292            0.0000000000
     37592      6452  TIP3      H2             29.9244358094      -27.3749461288      -23.2874773157  TIP3      6292            0.0000000000
     37593      6453  TIP3      OH2            29.4196762865      -17.5707076128      -20.9290641737  TIP3      6293            0.0000000000
     37594      6453  TIP3      H1             29.9453189796      -16.8252571180      -20.5779719113  TIP3      6293            0.0000000000
     37595      6453  TIP3      H2             29.2912779053      -17.2936741580      -21.8495846390  TIP3      6293            0.0000000000
     37596      6454  TIP3      OH2            22.2162237740      -22.1706112885      -21.8460168985  TIP3      6294            0.0000000000
     37597      6454  TIP3      H1             22.9567764461      -22.1007743988      -21.2309389112  TIP3      6294            0.0000000000
     37598      6454  TIP3      H2             22.6416757440      -22.5053967631      -22.6450871840  TIP3      6294            0.0000000000
     37599      6455  TIP3      OH2            23.1372344008      -33.3588884364      -21.0456030836  TIP3      6295            0.0000000000
     37600      6455  TIP3      H1             23.1378442151      -34.0887823014      -21.7087163808  TIP3      6295            0.0000000000
     37601      6455  TIP3      H2             22.5373348072      -33.7908966773      -20.3913664107  TIP3      6295            0.0000000000
     37602      6456  TIP3      OH2            25.6307810480      -32.6779491547      -22.0384015131  TIP3      6296            0.0000000000
     37603      6456  TIP3      H1             25.4052581821      -33.4074890441      -22.6572450936  TIP3      6296            0.0000000000
     37604      6456  TIP3      H2             24.9762863499      -32.7881028597      -21.3326272101  TIP3      6296            0.0000000000
     37605      6457  TIP3      OH2            24.8834801339      -17.7226572778      -22.9312652325  TIP3      6297            0.0000000000
     37606      6457  TIP3      H1             25.4833852902      -17.8285993314      -22.1777971541  TIP3      6297            0.0000000000
     37607      6457  TIP3      H2             25.1879603512      -18.5250706918      -23.3968637704  TIP3      6297            0.0000000000
     37608      6458  TIP3      OH2           -24.3212757703       -8.7179928112      -21.5828861952  TIP3      6298            0.0000000000
     37609      6458  TIP3      H1            -23.7963512002       -7.9257357520      -21.7337720086  TIP3      6298            0.0000000000
     37610      6458  TIP3      H2            -24.1912234593       -9.1892834389      -22.4202698266  TIP3      6298            0.0000000000
     37611      6459  TIP3      OH2           -17.6206315545       -1.2160295589      -22.7736217006  TIP3      6299            0.0000000000
     37612      6459  TIP3      H1            -17.0448986204       -0.9805762606      -22.0343260116  TIP3      6299            0.0000000000
     37613      6459  TIP3      H2            -17.0452097566       -1.9459663536      -23.0828221789  TIP3      6299            0.0000000000
     37614      6460  TIP3      OH2           -22.0033880351        1.3143253165      -22.1095003788  TIP3      6300            0.0000000000
     37615      6460  TIP3      H1            -21.4220918877        0.6321553443      -22.4997562293  TIP3      6300            0.0000000000
     37616      6460  TIP3      H2            -21.9742725674        1.1542228794      -21.1596049152  TIP3      6300            0.0000000000
     37617      6461  TIP3      OH2           -20.2992455799       -5.8948863175      -22.9572666754  TIP3      6301            0.0000000000
     37618      6461  TIP3      H1            -20.5054418175       -6.4568761693      -23.7279465403  TIP3      6301            0.0000000000
     37619      6461  TIP3      H2            -19.3714413865       -6.1060654191      -22.7725999271  TIP3      6301            0.0000000000
     37620      6462  TIP3      OH2           -24.9736621847      -12.9703626553      -22.9210798684  TIP3      6302            0.0000000000
     37621      6462  TIP3      H1            -25.2284449173      -12.7689056180      -22.0167006321  TIP3      6302            0.0000000000
     37622      6462  TIP3      H2            -25.6489111719      -13.6222983770      -23.1786625540  TIP3      6302            0.0000000000
     37623      6463  TIP3      OH2           -28.8750405443      -12.2792602879      -23.2229768175  TIP3      6303            0.0000000000
     37624      6463  TIP3      H1            -29.7061794195      -11.8420985487      -22.9699730662  TIP3      6303            0.0000000000
     37625      6463  TIP3      H2            -28.6423054863      -11.6831251876      -23.9461408286  TIP3      6303            0.0000000000
     37626      6464  TIP3      OH2           -22.8435594939      -11.1949905206      -21.3639823338  TIP3      6304            0.0000000000
     37627      6464  TIP3      H1            -23.2224990128      -11.8744332420      -21.9344071647  TIP3      6304            0.0000000000
     37628      6464  TIP3      H2            -22.5503430194      -10.5422700197      -22.0342858024  TIP3      6304            0.0000000000
     37629      6465  TIP3      OH2           -33.2240296561       -7.0912103672      -22.8613468145  TIP3      6305            0.0000000000
     37630      6465  TIP3      H1            -32.2885881959       -7.1140496601      -22.5951749878  TIP3      6305            0.0000000000
     37631      6465  TIP3      H2            -33.4763541716       -6.1916462000      -22.5917793374  TIP3      6305            0.0000000000
     37632      6466  TIP3      OH2           -26.8104211185       -1.9352581682      -23.7675757866  TIP3      6306            0.0000000000
     37633      6466  TIP3      H1            -26.9767891489       -2.3379493890      -24.6338408521  TIP3      6306            0.0000000000
     37634      6466  TIP3      H2            -26.9830172726       -2.6691264884      -23.1563451573  TIP3      6306            0.0000000000
     37635      6467  TIP3      OH2           -31.8635868174       -4.8761299679      -21.8152579929  TIP3      6307            0.0000000000
     37636      6467  TIP3      H1            -31.4093634522       -4.7128059098      -20.9785914878  TIP3      6307            0.0000000000
     37637      6467  TIP3      H2            -31.1347429228       -5.2778563354      -22.3367990452  TIP3      6307            0.0000000000
     37638      6468  TIP3      OH2           -25.1122149302       -0.9116188149      -20.4928734648  TIP3      6308            0.0000000000
     37639      6468  TIP3      H1            -25.6371546916       -1.0595095947      -19.6836122730  TIP3      6308            0.0000000000
     37640      6468  TIP3      H2            -25.2870185041       -0.0032997750      -20.7670737123  TIP3      6308            0.0000000000
     37641      6469  TIP3      OH2           -29.4906582575      -13.1045872500      -20.6030164152  TIP3      6309            0.0000000000
     37642      6469  TIP3      H1            -29.9276217992      -12.2308947516      -20.4460406041  TIP3      6309            0.0000000000
     37643      6469  TIP3      H2            -29.0309721930      -12.8912182382      -21.4438347857  TIP3      6309            0.0000000000
     37644      6470  TIP3      OH2           -33.0184160901      -10.0867688787      -22.7639093785  TIP3      6310            0.0000000000
     37645      6470  TIP3      H1            -32.3727900422       -9.4025539927      -22.5279455623  TIP3      6310            0.0000000000
     37646      6470  TIP3      H2            -33.6824389896       -9.5964184448      -23.2911924365  TIP3      6310            0.0000000000
     37647      6471  TIP3      OH2           -24.8890761313        0.0501990550      -23.6857741902  TIP3      6311            0.0000000000
     37648      6471  TIP3      H1            -25.3963627158       -0.7909751369      -23.5860430428  TIP3      6311            0.0000000000
     37649      6471  TIP3      H2            -24.1648285134       -0.2371888637      -24.2779139035  TIP3      6311            0.0000000000
     37650      6472  TIP3      OH2           -20.4574192649       -0.6947675921      -23.3920889035  TIP3      6312            0.0000000000
     37651      6472  TIP3      H1            -19.7151341635       -0.8453648173      -22.7816769783  TIP3      6312            0.0000000000
     37652      6472  TIP3      H2            -19.9583197899       -0.7734806925      -24.2441736623  TIP3      6312            0.0000000000
     37653      6473  TIP3      OH2           -29.6156724873       -5.2054822157      -23.4689682498  TIP3      6313            0.0000000000
     37654      6473  TIP3      H1            -29.2647994847       -5.9661935587      -22.9629653745  TIP3      6313            0.0000000000
     37655      6473  TIP3      H2            -28.8564423331       -5.0424023155      -24.0705646586  TIP3      6313            0.0000000000
     37656      6474  TIP3      OH2           -23.5409697399       -3.1624292949      -23.5299073436  TIP3      6314            0.0000000000
     37657      6474  TIP3      H1            -23.0139486067       -3.2560128032      -22.7029884788  TIP3      6314            0.0000000000
     37658      6474  TIP3      H2            -24.1007072301       -3.9492196654      -23.3606095640  TIP3      6314            0.0000000000
     37659      6475  TIP3      OH2           -27.3938940222       -8.0125072994      -23.0415748475  TIP3      6315            0.0000000000
     37660      6475  TIP3      H1            -27.8228694731       -7.7771336973      -23.8864988803  TIP3      6315            0.0000000000
     37661      6475  TIP3      H2            -26.5134048286       -8.2793860806      -23.3645687256  TIP3      6315            0.0000000000
     37662      6476  TIP3      OH2           -17.6890573415       -6.0158459515      -23.4744807300  TIP3      6316            0.0000000000
     37663      6476  TIP3      H1            -18.0033667663       -6.3097770969      -24.3592811543  TIP3      6316            0.0000000000
     37664      6476  TIP3      H2            -17.9960747684       -5.0791222920      -23.5175902180  TIP3      6316            0.0000000000
     37665      6477  TIP3      OH2           -33.6659883706       -2.9293612133      -22.2971951763  TIP3      6317            0.0000000000
     37666      6477  TIP3      H1            -32.8797581099       -3.4921868409      -22.1536365762  TIP3      6317            0.0000000000
     37667      6477  TIP3      H2            -34.2933780378       -3.5576019745      -22.6890708404  TIP3      6317            0.0000000000
     37668      6478  TIP3      OH2           -18.7862278223       -9.9921455221      -23.6461687162  TIP3      6318            0.0000000000
     37669      6478  TIP3      H1            -17.8451481409       -9.7816544805      -23.5090838386  TIP3      6318            0.0000000000
     37670      6478  TIP3      H2            -18.7542020398      -10.9554154347      -23.4788473248  TIP3      6318            0.0000000000
     37671      6479  TIP3      OH2           -18.9533570856      -12.8644477981      -22.8715282053  TIP3      6319            0.0000000000
     37672      6479  TIP3      H1            -18.2423390272      -13.3771013999      -22.4440646945  TIP3      6319            0.0000000000
     37673      6479  TIP3      H2            -19.7178375251      -13.4375901275      -22.7326045314  TIP3      6319            0.0000000000
     37674      6480  TIP3      OH2           -16.8410279340      -14.5705711132      -21.8070225879  TIP3      6320            0.0000000000
     37675      6480  TIP3      H1            -16.2202028568      -14.9003348236      -22.4834254985  TIP3      6320            0.0000000000
     37676      6480  TIP3      H2            -16.5092240594      -13.6416363109      -21.8198752152  TIP3      6320            0.0000000000
     37677      6481  TIP3      OH2           -33.6478230341      -15.6579657984      -21.8377768394  TIP3      6321            0.0000000000
     37678      6481  TIP3      H1            -33.3370055000      -14.7422069889      -21.8351812652  TIP3      6321            0.0000000000
     37679      6481  TIP3      H2            -34.6144962187      -15.5371925522      -21.9505492903  TIP3      6321            0.0000000000
     37680      6482  TIP3      OH2           -31.6495204227      -13.7122470071      -22.1100502642  TIP3      6322            0.0000000000
     37681      6482  TIP3      H1            -31.3403842600      -14.4886431878      -22.6173156278  TIP3      6322            0.0000000000
     37682      6482  TIP3      H2            -31.0298246309      -13.6961475036      -21.3607281082  TIP3      6322            0.0000000000
     37683      6483  TIP3      OH2           -25.1093781891        1.8129536482      -21.5318249792  TIP3      6323            0.0000000000
     37684      6483  TIP3      H1            -24.2362505379        2.1769687603      -21.7498041009  TIP3      6323            0.0000000000
     37685      6483  TIP3      H2            -25.1696401452        1.1133709749      -22.2200495798  TIP3      6323            0.0000000000
     37686      6484  TIP3      OH2            -5.5833575492       -8.1966727252      -23.0465375870  TIP3      6324            0.0000000000
     37687      6484  TIP3      H1             -5.0460057982       -7.6292333494      -22.4749602298  TIP3      6324            0.0000000000
     37688      6484  TIP3      H2             -4.8927550448       -8.7783702949      -23.4305332833  TIP3      6324            0.0000000000
     37689      6485  TIP3      OH2             0.3885860619      -15.5027070024      -20.7087524485  TIP3      6325            0.0000000000
     37690      6485  TIP3      H1              0.1256537788      -15.8983022844      -19.8481687421  TIP3      6325            0.0000000000
     37691      6485  TIP3      H2              0.7485631071      -14.6948223795      -20.3088279495  TIP3      6325            0.0000000000
     37692      6486  TIP3      OH2             1.2807622121       -1.4446743517      -22.5613541237  TIP3      6326            0.0000000000
     37693      6486  TIP3      H1              1.4633729513       -0.4910492147      -22.4203473340  TIP3      6326            0.0000000000
     37694      6486  TIP3      H2              2.0889427717       -1.8065407164      -22.1634837341  TIP3      6326            0.0000000000
     37695      6487  TIP3      OH2            -3.1966914074        1.1381342740      -21.8732364831  TIP3      6327            0.0000000000
     37696      6487  TIP3      H1             -3.0845745954        0.4023784675      -22.5107763517  TIP3      6327            0.0000000000
     37697      6487  TIP3      H2             -2.3328580324        1.1087487812      -21.4397619955  TIP3      6327            0.0000000000
     37698      6488  TIP3      OH2            -2.6807367909       -6.8432540228      -22.8554974091  TIP3      6328            0.0000000000
     37699      6488  TIP3      H1             -1.8027490597       -7.1049189391      -23.1941699650  TIP3      6328            0.0000000000
     37700      6488  TIP3      H2             -2.4209438700       -6.5230321602      -21.9776407343  TIP3      6328            0.0000000000
     37701      6489  TIP3      OH2            -5.9553793361      -12.8888915411      -22.9686153586  TIP3      6329            0.0000000000
     37702      6489  TIP3      H1             -6.4142470029      -12.2119805099      -22.4605283078  TIP3      6329            0.0000000000
     37703      6489  TIP3      H2             -6.6063142113      -13.6170140265      -22.9054579682  TIP3      6329            0.0000000000
     37704      6490  TIP3      OH2           -10.2371403091      -12.7677431287      -23.4435921358  TIP3      6330            0.0000000000
     37705      6490  TIP3      H1            -10.6042807530      -12.7635394711      -22.5326631355  TIP3      6330            0.0000000000
     37706      6490  TIP3      H2            -10.7432571599      -12.0422126606      -23.8597270343  TIP3      6330            0.0000000000
     37707      6491  TIP3      OH2           -14.2583037349      -12.0403306539      -20.1159002391  TIP3      6331            0.0000000000
     37708      6491  TIP3      H1            -13.9607041155      -12.4231566369      -20.9664331621  TIP3      6331            0.0000000000
     37709      6491  TIP3      H2            -15.1989485882      -11.9900426408      -20.2980731582  TIP3      6331            0.0000000000
     37710      6492  TIP3      OH2            -5.8073954167       -3.5286099708      -20.0266235115  TIP3      6332            0.0000000000
     37711      6492  TIP3      H1             -6.2764248547       -3.1047744355      -20.7526481673  TIP3      6332            0.0000000000
     37712      6492  TIP3      H2             -5.8838998514       -4.4700904241      -20.2287863451  TIP3      6332            0.0000000000
     37713      6493  TIP3      OH2            -2.5552070704       -2.7134645808      -21.4546659549  TIP3      6333            0.0000000000
     37714      6493  TIP3      H1             -2.6320210122       -3.3962183537      -20.7592251766  TIP3      6333            0.0000000000
     37715      6493  TIP3      H2             -2.7041682922       -3.2441821345      -22.2525252364  TIP3      6333            0.0000000000
     37716      6494  TIP3      OH2             2.1720364338        0.9664092929      -21.8687761719  TIP3      6334            0.0000000000
     37717      6494  TIP3      H1              2.9618501617        1.5309235050      -21.7974945303  TIP3      6334            0.0000000000
     37718      6494  TIP3      H2              1.4834944186        1.5231978048      -21.4458395327  TIP3      6334            0.0000000000
     37719      6495  TIP3      OH2            -8.0549259540       -1.8986802301      -23.7107201135  TIP3      6335            0.0000000000
     37720      6495  TIP3      H1             -8.4150452909       -2.3891122249      -24.4707683156  TIP3      6335            0.0000000000
     37721      6495  TIP3      H2             -8.4992305695       -2.3890064374      -22.9884450019  TIP3      6335            0.0000000000
     37722      6496  TIP3      OH2            -9.1753123849       -2.9115662790      -21.3845275707  TIP3      6336            0.0000000000
     37723      6496  TIP3      H1             -9.4351501762       -3.5310035227      -20.6807007363  TIP3      6336            0.0000000000
     37724      6496  TIP3      H2             -9.0243835409       -2.0733345329      -20.9108113107  TIP3      6336            0.0000000000
     37725      6497  TIP3      OH2            -6.2707012685       -0.4580046155      -20.2101001318  TIP3      6337            0.0000000000
     37726      6497  TIP3      H1             -7.2520730602       -0.4103604127      -20.1579036089  TIP3      6337            0.0000000000
     37727      6497  TIP3      H2             -6.0720507402        0.4654322982      -20.4756839200  TIP3      6337            0.0000000000
     37728      6498  TIP3      OH2            -8.8905725921       -0.1620541206      -20.3956637115  TIP3      6338            0.0000000000
     37729      6498  TIP3      H1             -8.8939913479        0.4968130128      -21.1269655112  TIP3      6338            0.0000000000
     37730      6498  TIP3      H2             -9.2980589883        0.3900716378      -19.6867843569  TIP3      6338            0.0000000000
     37731      6499  TIP3      OH2           -10.5166303286      -13.1214893468      -20.6802248333  TIP3      6339            0.0000000000
     37732      6499  TIP3      H1            -10.3953293785      -12.9417100206      -19.7369554911  TIP3      6339            0.0000000000
     37733      6499  TIP3      H2             -9.5821372633      -13.3627364921      -20.8680122483  TIP3      6339            0.0000000000
     37734      6500  TIP3      OH2           -11.8751612588       -2.9875984627      -22.1011314512  TIP3      6340            0.0000000000
     37735      6500  TIP3      H1            -10.9864599160       -2.6621797156      -21.8895898151  TIP3      6340            0.0000000000
     37736      6500  TIP3      H2            -11.6121574097       -3.6935488668      -22.7257878935  TIP3      6340            0.0000000000
     37737      6501  TIP3      OH2           -13.7348838614       -9.9133805827      -22.6324696723  TIP3      6341            0.0000000000
     37738      6501  TIP3      H1            -13.9919421854       -9.1607462568      -23.1756271906  TIP3      6341            0.0000000000
     37739      6501  TIP3      H2            -14.5418401473      -10.4764639149      -22.6438677410  TIP3      6341            0.0000000000
     37740      6502  TIP3      OH2            -6.1844018863        0.2208827260      -23.5488119899  TIP3      6342            0.0000000000
     37741      6502  TIP3      H1             -6.7701136795       -0.5535134526      -23.4026790982  TIP3      6342            0.0000000000
     37742      6502  TIP3      H2             -5.4608367885       -0.2014805842      -24.0633976878  TIP3      6342            0.0000000000
     37743      6503  TIP3      OH2            -1.6995193043       -0.5562420667      -23.4161652354  TIP3      6343            0.0000000000
     37744      6503  TIP3      H1             -1.6348945050       -1.2559095699      -22.7341276205  TIP3      6343            0.0000000000
     37745      6503  TIP3      H2             -0.9197259072       -0.7845724127      -23.9662300893  TIP3      6343            0.0000000000
     37746      6504  TIP3      OH2           -10.6130251745       -4.7979766278      -23.8163735648  TIP3      6344            0.0000000000
     37747      6504  TIP3      H1            -10.2392592486       -5.0572986787      -22.9473242085  TIP3      6344            0.0000000000
     37748      6504  TIP3      H2             -9.8574201816       -4.9773834328      -24.4290707287  TIP3      6344            0.0000000000
     37749      6505  TIP3      OH2            -4.8857231734       -3.2121576589      -23.8754222102  TIP3      6345            0.0000000000
     37750      6505  TIP3      H1             -5.7201982100       -3.2920142374      -23.4063190913  TIP3      6345            0.0000000000
     37751      6505  TIP3      H2             -4.8260320166       -4.1234861682      -24.2480853726  TIP3      6345            0.0000000000
     37752      6506  TIP3      OH2            -9.7993246263       -5.8354118889      -21.4025957890  TIP3      6346            0.0000000000
     37753      6506  TIP3      H1            -10.5121719427       -6.4036223390      -21.1017374702  TIP3      6346            0.0000000000
     37754      6506  TIP3      H2             -9.3005760207       -6.4516206591      -21.9834681334  TIP3      6346            0.0000000000
     37755      6507  TIP3      OH2            -8.5942631757       -7.8418405018      -23.0016336320  TIP3      6347            0.0000000000
     37756      6507  TIP3      H1             -8.9385698372       -8.2908838673      -23.8027039993  TIP3      6347            0.0000000000
     37757      6507  TIP3      H2             -7.6954551984       -8.2061235169      -22.9364463010  TIP3      6347            0.0000000000
     37758      6508  TIP3      OH2             0.0813638781       -6.8474089466      -23.3788018172  TIP3      6348            0.0000000000
     37759      6508  TIP3      H1              0.6869964514       -6.6001491383      -24.1005851006  TIP3      6348            0.0000000000
     37760      6508  TIP3      H2             -0.2050952062       -5.9600853252      -23.1004217461  TIP3      6348            0.0000000000
     37761      6509  TIP3      OH2            -8.6415543161        2.0654505636      -22.0067017039  TIP3      6349            0.0000000000
     37762      6509  TIP3      H1             -7.9988339556        2.3010791577      -21.3169764116  TIP3      6349            0.0000000000
     37763      6509  TIP3      H2             -8.3445724946        2.6518433702      -22.7323776077  TIP3      6349            0.0000000000
     37764      6510  TIP3      OH2           -15.2845494328       -2.5965065500      -22.7722787499  TIP3      6350            0.0000000000
     37765      6510  TIP3      H1            -14.4645435517       -2.8678709639      -22.3116613379  TIP3      6350            0.0000000000
     37766      6510  TIP3      H2            -15.4561084610       -3.3899308114      -23.3260166561  TIP3      6350            0.0000000000
     37767      6511  TIP3      OH2             2.3199551622       -7.2664085961      -21.5507531171  TIP3      6351            0.0000000000
     37768      6511  TIP3      H1              1.6104341647       -7.5140206983      -22.1651097030  TIP3      6351            0.0000000000
     37769      6511  TIP3      H2              1.9505241133       -6.4601606766      -21.1581085734  TIP3      6351            0.0000000000
     37770      6512  TIP3      OH2             1.2380671894      -10.1410714448      -23.2742759444  TIP3      6352            0.0000000000
     37771      6512  TIP3      H1              0.9355356882       -9.4185822140      -23.8283056242  TIP3      6352            0.0000000000
     37772      6512  TIP3      H2              0.6240100074      -10.8426142349      -23.5432727804  TIP3      6352            0.0000000000
     37773      6513  TIP3      OH2            -0.4494129887      -12.9291847022      -24.1688426007  TIP3      6353            0.0000000000
     37774      6513  TIP3      H1             -0.7395682531      -13.2073254234      -23.2878191739  TIP3      6353            0.0000000000
     37775      6513  TIP3      H2             -1.2613089797      -13.1084139575      -24.6744780582  TIP3      6353            0.0000000000
     37776      6514  TIP3      OH2           -12.9823681505      -13.5833127670      -21.9125376655  TIP3      6354            0.0000000000
     37777      6514  TIP3      H1            -12.6470205238      -14.0432827514      -22.6865300972  TIP3      6354            0.0000000000
     37778      6514  TIP3      H2            -12.1907996621      -13.4581462954      -21.3542339143  TIP3      6354            0.0000000000
     37779      6515  TIP3      OH2            -5.7571272370        2.0187142491      -21.2592209776  TIP3      6355            0.0000000000
     37780      6515  TIP3      H1             -4.7878972941        2.0673407413      -21.3669082756  TIP3      6355            0.0000000000
     37781      6515  TIP3      H2             -5.9532530494        1.4226956152      -22.0154160073  TIP3      6355            0.0000000000
     37782      6516  TIP3      OH2            13.1137166080       -8.5350177456      -22.2270107941  TIP3      6356            0.0000000000
     37783      6516  TIP3      H1             13.4888941103       -7.7890718598      -21.7390768038  TIP3      6356            0.0000000000
     37784      6516  TIP3      H2             13.9107685760       -8.9642243345      -22.6112570291  TIP3      6356            0.0000000000
     37785      6517  TIP3      OH2            17.3686740122       -6.1680375195      -22.5232788053  TIP3      6357            0.0000000000
     37786      6517  TIP3      H1             16.9750712699       -6.8601409139      -23.0645140762  TIP3      6357            0.0000000000
     37787      6517  TIP3      H2             18.3175287160       -6.2771318869      -22.7362693168  TIP3      6357            0.0000000000
     37788      6518  TIP3      OH2             9.0495616904      -12.4197184148      -23.4840701773  TIP3      6358            0.0000000000
     37789      6518  TIP3      H1              8.6123096964      -12.7867669109      -22.6823312988  TIP3      6358            0.0000000000
     37790      6518  TIP3      H2              8.5897343529      -11.5773115976      -23.6114502024  TIP3      6358            0.0000000000
     37791      6519  TIP3      OH2             7.8524727638       -9.5744863621      -21.8977023662  TIP3      6359            0.0000000000
     37792      6519  TIP3      H1              7.7760429195       -9.9282344751      -22.7987010638  TIP3      6359            0.0000000000
     37793      6519  TIP3      H2              8.7406934603       -9.1806097034      -22.0053849438  TIP3      6359            0.0000000000
     37794      6520  TIP3      OH2             4.9058731783       -6.9739549970      -22.2572585822  TIP3      6360            0.0000000000
     37795      6520  TIP3      H1              5.3372994808       -7.4809090076      -21.5572912611  TIP3      6360            0.0000000000
     37796      6520  TIP3      H2              3.9714849430       -7.2743952713      -22.1592053994  TIP3      6360            0.0000000000
     37797      6521  TIP3      OH2            20.6760214077        1.0397025771      -22.9640491948  TIP3      6361            0.0000000000
     37798      6521  TIP3      H1             21.4708114432        0.7786864062      -22.4838895662  TIP3      6361            0.0000000000
     37799      6521  TIP3      H2             20.4091095945        1.8409037931      -22.4809777390  TIP3      6361            0.0000000000
     37800      6522  TIP3      OH2            10.6815551021       -1.9310436115      -23.6031209268  TIP3      6362            0.0000000000
     37801      6522  TIP3      H1             10.6838930854       -2.5542761726      -24.3417630359  TIP3      6362            0.0000000000
     37802      6522  TIP3      H2             10.4213645565       -2.4930841622      -22.8414191411  TIP3      6362            0.0000000000
     37803      6523  TIP3      OH2             9.5766009262       -2.5775251186      -21.1866043072  TIP3      6363            0.0000000000
     37804      6523  TIP3      H1             10.2825855777       -3.0447392887      -20.7117907948  TIP3      6363            0.0000000000
     37805      6523  TIP3      H2              9.7385945092       -1.6611339690      -20.8522598988  TIP3      6363            0.0000000000
     37806      6524  TIP3      OH2             6.3169559962       -5.1239310333      -20.6462964023  TIP3      6364            0.0000000000
     37807      6524  TIP3      H1              5.8375995877       -5.5019424694      -21.4097530322  TIP3      6364            0.0000000000
     37808      6524  TIP3      H2              7.0087402097       -4.6077014370      -21.0845363196  TIP3      6364            0.0000000000
     37809      6525  TIP3      OH2             9.9680130930        0.0554202788      -20.5662748476  TIP3      6365            0.0000000000
     37810      6525  TIP3      H1              9.9715493404        0.6920746089      -21.2905826464  TIP3      6365            0.0000000000
     37811      6525  TIP3      H2             10.1550888639        0.5868825304      -19.7731119310  TIP3      6365            0.0000000000
     37812      6526  TIP3      OH2             8.1198839796      -13.0621272430      -20.9268676578  TIP3      6366            0.0000000000
     37813      6526  TIP3      H1              8.4228478239      -12.4481483599      -20.2287785727  TIP3      6366            0.0000000000
     37814      6526  TIP3      H2              8.3480983364      -13.9067373215      -20.5149879129  TIP3      6366            0.0000000000
     37815      6527  TIP3      OH2             6.9699366230       -2.6413632438      -21.7919888074  TIP3      6367            0.0000000000
     37816      6527  TIP3      H1              7.9614663177       -2.6320723700      -21.7265717502  TIP3      6367            0.0000000000
     37817      6527  TIP3      H2              6.8553876843       -3.1271608214      -22.6293471436  TIP3      6367            0.0000000000
     37818      6528  TIP3      OH2            12.8627617448       -0.2115501479      -23.4821594981  TIP3      6368            0.0000000000
     37819      6528  TIP3      H1             12.1351315254       -0.8610046521      -23.3363665220  TIP3      6368            0.0000000000
     37820      6528  TIP3      H2             13.5208457735       -0.7713897556      -23.9463465193  TIP3      6368            0.0000000000
     37821      6529  TIP3      OH2             7.9763281136       -4.6081828181      -23.6056073455  TIP3      6369            0.0000000000
     37822      6529  TIP3      H1              8.1870061436       -5.4409859231      -23.1744262858  TIP3      6369            0.0000000000
     37823      6529  TIP3      H2              8.8201053537       -4.4526900286      -24.0795411421  TIP3      6369            0.0000000000
     37824      6530  TIP3      OH2            13.7445401089       -3.3933687783      -23.8363327814  TIP3      6370            0.0000000000
     37825      6530  TIP3      H1             13.4002842636       -3.3692291026      -22.9065248990  TIP3      6370            0.0000000000
     37826      6530  TIP3      H2             13.6674141932       -4.3675486170      -23.9419816336  TIP3      6370            0.0000000000
     37827      6531  TIP3      OH2            10.2746767921       -9.0047615752      -22.9418824280  TIP3      6371            0.0000000000
     37828      6531  TIP3      H1             10.3751770007       -8.7116417724      -23.8512112884  TIP3      6371            0.0000000000
     37829      6531  TIP3      H2             11.1994689929       -9.0565581561      -22.6392034049  TIP3      6371            0.0000000000
     37830      6532  TIP3      OH2            19.7618443440       -6.0459666470      -23.7001844290  TIP3      6372            0.0000000000
     37831      6532  TIP3      H1             19.3553577740       -6.1503400022      -24.5774553062  TIP3      6372            0.0000000000
     37832      6532  TIP3      H2             20.3082282286       -5.2557785657      -23.8187808004  TIP3      6372            0.0000000000
     37833      6533  TIP3      OH2             3.5491496438       -3.0355681963      -22.2902285432  TIP3      6373            0.0000000000
     37834      6533  TIP3      H1              4.1330352663       -3.6424099513      -22.8066141029  TIP3      6373            0.0000000000
     37835      6533  TIP3      H2              2.7514178816       -3.2106391703      -22.8365455411  TIP3      6373            0.0000000000
     37836      6534  TIP3      OH2            18.3225732508      -12.0836929485      -22.7631005387  TIP3      6374            0.0000000000
     37837      6534  TIP3      H1             19.1475162986      -12.5185367552      -22.4958810203  TIP3      6374            0.0000000000
     37838      6534  TIP3      H2             18.0776802483      -12.5061407720      -23.6005392789  TIP3      6374            0.0000000000
     37839      6535  TIP3      OH2            20.7279970400      -13.5770399387      -21.6667053467  TIP3      6375            0.0000000000
     37840      6535  TIP3      H1             21.0370077839      -13.0783728650      -22.4323897094  TIP3      6375            0.0000000000
     37841      6535  TIP3      H2             21.4039065801      -13.3579108156      -20.9912524154  TIP3      6375            0.0000000000
     37842      6536  TIP3      OH2             5.4034854808        1.0573502543      -23.5084786184  TIP3      6376            0.0000000000
     37843      6536  TIP3      H1              5.1106602014        1.8012485650      -22.9555544987  TIP3      6376            0.0000000000
     37844      6536  TIP3      H2              6.0685996055        0.5980596948      -22.9754377741  TIP3      6376            0.0000000000
     37845      6537  TIP3      OH2            31.9302305882      -13.0358580237      -21.8285131180  TIP3      6377            0.0000000000
     37846      6537  TIP3      H1             31.1145548707      -13.0059370127      -21.3216680089  TIP3      6377            0.0000000000
     37847      6537  TIP3      H2             31.6575397531      -13.6791950073      -22.5003847742  TIP3      6377            0.0000000000
     37848      6538  TIP3      OH2            26.4191372456       -9.1655669722      -22.0196388356  TIP3      6378            0.0000000000
     37849      6538  TIP3      H1             26.1498321767       -9.9906734463      -22.4501558747  TIP3      6378            0.0000000000
     37850      6538  TIP3      H2             26.9722737452       -8.7314947926      -22.6777403098  TIP3      6378            0.0000000000
     37851      6539  TIP3      OH2            34.6309032127      -12.6079532304      -21.5997476236  TIP3      6379            0.0000000000
     37852      6539  TIP3      H1             33.7155196716      -12.9524906435      -21.7244508819  TIP3      6379            0.0000000000
     37853      6539  TIP3      H2             34.4464860545      -11.8430421474      -21.0367680464  TIP3      6379            0.0000000000
     37854      6540  TIP3      OH2           -35.0294920294       -9.8915995443      -20.8434093204  TIP3      6380            0.0000000000
     37855      6540  TIP3      H1            -34.3762312209      -10.5162116120      -21.2024419835  TIP3      6380            0.0000000000
     37856      6540  TIP3      H2            -35.1480310323       -9.3451930566      -21.6419738163  TIP3      6380            0.0000000000
     37857      6541  TIP3      OH2            23.2952874369       -6.9355061792      -21.9222820845  TIP3      6381            0.0000000000
     37858      6541  TIP3      H1             24.1967722602       -7.1065033597      -21.6137161612  TIP3      6381            0.0000000000
     37859      6541  TIP3      H2             22.8962038544       -7.4075192545      -21.1416861908  TIP3      6381            0.0000000000
     37860      6542  TIP3      OH2            29.5343334148       -2.4413646188      -23.5079614764  TIP3      6382            0.0000000000
     37861      6542  TIP3      H1             29.6172636309       -3.0787005562      -24.2387146276  TIP3      6382            0.0000000000
     37862      6542  TIP3      H2             29.0271985699       -2.9538910116      -22.8553230881  TIP3      6382            0.0000000000
     37863      6543  TIP3      OH2            28.7307606870        0.2690899994      -20.5073051329  TIP3      6383            0.0000000000
     37864      6543  TIP3      H1             28.3413125246        0.4187235941      -21.3810988242  TIP3      6383            0.0000000000
     37865      6543  TIP3      H2             28.0939296590        0.6310298657      -19.8916735317  TIP3      6383            0.0000000000
     37866      6544  TIP3      OH2            26.8499847238       -4.6817201694      -23.7406861127  TIP3      6384            0.0000000000
     37867      6544  TIP3      H1             26.6441898198       -4.4501437383      -22.7914843601  TIP3      6384            0.0000000000
     37868      6544  TIP3      H2             27.4738251126       -5.3979489899      -23.5662554828  TIP3      6384            0.0000000000
     37869      6545  TIP3      OH2            32.4360324194       -3.2659736052      -23.9030506340  TIP3      6385            0.0000000000
     37870      6545  TIP3      H1             31.5519366847       -3.0434963966      -23.5472324073  TIP3      6385            0.0000000000
     37871      6545  TIP3      H2             32.3821205856       -4.2530323802      -23.9054555078  TIP3      6385            0.0000000000
     37872      6546  TIP3      OH2            29.0637773368       -8.0203210451      -23.1282478584  TIP3      6386            0.0000000000
     37873      6546  TIP3      H1             29.6804529865       -7.7793322313      -23.8436794741  TIP3      6386            0.0000000000
     37874      6546  TIP3      H2             29.6929780664       -8.3947698055      -22.4944616480  TIP3      6386            0.0000000000
     37875      6547  TIP3      OH2            22.6383183644       -3.1547420616      -22.4780799505  TIP3      6387            0.0000000000
     37876      6547  TIP3      H1             23.2666179586       -3.8129530920      -22.1671297198  TIP3      6387            0.0000000000
     37877      6547  TIP3      H2             22.0608816074       -3.7158647529      -23.0206841732  TIP3      6387            0.0000000000
     37878      6548  TIP3      OH2            24.5194543583        0.7819183067      -22.8303184342  TIP3      6388            0.0000000000
     37879      6548  TIP3      H1             24.9363929233        1.5301066683      -22.3897393161  TIP3      6388            0.0000000000
     37880      6548  TIP3      H2             25.2684347355        0.2091411567      -23.0801111570  TIP3      6388            0.0000000000
     37881      6549  TIP3      OH2           -24.4754757783       10.6753578539      -22.5011125104  TIP3      6389            0.0000000000
     37882      6549  TIP3      H1            -23.8951166028       10.1804463958      -21.8962117660  TIP3      6389            0.0000000000
     37883      6549  TIP3      H2            -24.5807239895       10.0842569357      -23.2870687244  TIP3      6389            0.0000000000
     37884      6550  TIP3      OH2           -22.0761235420       11.0670787060      -20.5585469833  TIP3      6390            0.0000000000
     37885      6550  TIP3      H1            -22.0662160824       11.5415688811      -19.7092181864  TIP3      6390            0.0000000000
     37886      6550  TIP3      H2            -21.7658568817       11.7655986610      -21.1634820579  TIP3      6390            0.0000000000
     37887      6551  TIP3      OH2           -17.6382305327       17.4569111171      -22.1778529024  TIP3      6391            0.0000000000
     37888      6551  TIP3      H1            -17.6938537289       18.3384739603      -21.7768234569  TIP3      6391            0.0000000000
     37889      6551  TIP3      H2            -17.6396177913       16.9342505459      -21.3574239837  TIP3      6391            0.0000000000
     37890      6552  TIP3      OH2           -21.4406910237       19.6794503512      -21.8438702893  TIP3      6392            0.0000000000
     37891      6552  TIP3      H1            -20.9967663416       19.1805274978      -22.5710494186  TIP3      6392            0.0000000000
     37892      6552  TIP3      H2            -21.5472382560       18.9608877215      -21.2062794725  TIP3      6392            0.0000000000
     37893      6553  TIP3      OH2           -21.1511746587       12.9074364825      -22.5015271370  TIP3      6393            0.0000000000
     37894      6553  TIP3      H1            -21.4797413703       12.7392838759      -23.4044444440  TIP3      6393            0.0000000000
     37895      6553  TIP3      H2            -20.2217211905       12.6419526399      -22.6438825722  TIP3      6393            0.0000000000
     37896      6554  TIP3      OH2           -24.8790197205        5.6941024684      -22.1190318970  TIP3      6394            0.0000000000
     37897      6554  TIP3      H1            -25.1669530579        6.6060473172      -22.0132342219  TIP3      6394            0.0000000000
     37898      6554  TIP3      H2            -25.6926553857        5.2616118088      -22.4311078924  TIP3      6394            0.0000000000
     37899      6555  TIP3      OH2           -28.2129978022        6.7980670403      -22.7878694818  TIP3      6395            0.0000000000
     37900      6555  TIP3      H1            -28.3708022802        5.9841877123      -23.3119610848  TIP3      6395            0.0000000000
     37901      6555  TIP3      H2            -28.6743948592        7.4311347159      -23.3608664605  TIP3      6395            0.0000000000
     37902      6556  TIP3      OH2           -32.9158711751        6.8140003058      -21.3681887103  TIP3      6396            0.0000000000
     37903      6556  TIP3      H1            -33.0329371808        7.5856343970      -21.9676384023  TIP3      6396            0.0000000000
     37904      6556  TIP3      H2            -33.4758044184        7.1261601986      -20.6429333211  TIP3      6396            0.0000000000
     37905      6557  TIP3      OH2           -33.1841028405       12.0417853513      -22.2856876564  TIP3      6397            0.0000000000
     37906      6557  TIP3      H1            -32.8800372903       12.7182543672      -21.6542794860  TIP3      6397            0.0000000000
     37907      6557  TIP3      H2            -34.0790597719       11.8935641485      -21.9215117276  TIP3      6397            0.0000000000
     37908      6558  TIP3      OH2           -20.8732828245       15.7026079752      -22.3124183724  TIP3      6398            0.0000000000
     37909      6558  TIP3      H1            -20.9037654806       15.5910357101      -21.3426123144  TIP3      6398            0.0000000000
     37910      6558  TIP3      H2            -21.1599511590       14.7973648989      -22.5536859891  TIP3      6398            0.0000000000
     37911      6559  TIP3      OH2           -31.9260417556       13.8356231215      -20.1054911499  TIP3      6399            0.0000000000
     37912      6559  TIP3      H1            -31.3858946465       13.9361331639      -19.3007120509  TIP3      6399            0.0000000000
     37913      6559  TIP3      H2            -31.2376851170       13.7474947908      -20.7793987244  TIP3      6399            0.0000000000
     37914      6560  TIP3      OH2           -33.4296147660        9.1688409652      -22.4807093714  TIP3      6400            0.0000000000
     37915      6560  TIP3      H1            -32.8351471595        9.9372897579      -22.5210232441  TIP3      6400            0.0000000000
     37916      6560  TIP3      H2            -34.2707944942        9.5861023032      -22.2351199267  TIP3      6400            0.0000000000
     37917      6561  TIP3      OH2           -24.7225545837       18.6719962660      -23.1386130462  TIP3      6401            0.0000000000
     37918      6561  TIP3      H1            -25.3916429080       18.2702768809      -23.7054052434  TIP3      6401            0.0000000000
     37919      6561  TIP3      H2            -23.9417331256       18.5959593929      -23.7307249472  TIP3      6401            0.0000000000
     37920      6562  TIP3      OH2           -20.5400102951       18.0143595345      -23.6938448435  TIP3      6402            0.0000000000
     37921      6562  TIP3      H1            -20.5741163943       17.1681195625      -23.1787252825  TIP3      6402            0.0000000000
     37922      6562  TIP3      H2            -19.7638180497       17.9037819095      -24.2685371748  TIP3      6402            0.0000000000
     37923      6563  TIP3      OH2           -29.6290971601       13.5324278468      -24.0639464074  TIP3      6403            0.0000000000
     37924      6563  TIP3      H1            -29.3834165361       13.3145909292      -23.1449866308  TIP3      6403            0.0000000000
     37925      6563  TIP3      H2            -28.7583016898       13.5585246284      -24.5118302701  TIP3      6403            0.0000000000
     37926      6564  TIP3      OH2           -24.4348305201       15.4608373969      -23.6660767202  TIP3      6404            0.0000000000
     37927      6564  TIP3      H1            -25.3902183890       15.4589426954      -23.7601809801  TIP3      6404            0.0000000000
     37928      6564  TIP3      H2            -24.2429990901       14.5093097613      -23.8522318199  TIP3      6404            0.0000000000
     37929      6565  TIP3      OH2           -28.9503309874       12.3934781591      -21.2121323800  TIP3      6405            0.0000000000
     37930      6565  TIP3      H1            -29.1087312257       11.9389897598      -20.3513138816  TIP3      6405            0.0000000000
     37931      6565  TIP3      H2            -28.4328895969       11.6798522643      -21.6458614496  TIP3      6405            0.0000000000
     37932      6566  TIP3      OH2           -27.6230263509       10.6544446712      -22.8236251640  TIP3      6406            0.0000000000
     37933      6566  TIP3      H1            -28.0530731058       10.7304677795      -23.7010091118  TIP3      6406            0.0000000000
     37934      6566  TIP3      H2            -26.7005748934       10.5486814116      -23.1110317248  TIP3      6406            0.0000000000
     37935      6567  TIP3      OH2           -18.5909461445       12.4040925071      -23.6468071185  TIP3      6407            0.0000000000
     37936      6567  TIP3      H1            -18.1519223335       12.1085302143      -24.4624583270  TIP3      6407            0.0000000000
     37937      6567  TIP3      H2            -18.2068588735       13.2924443521      -23.5369833203  TIP3      6407            0.0000000000
     37938      6568  TIP3      OH2           -27.1270665376       20.9923288992      -21.8633291308  TIP3      6408            0.0000000000
     37939      6568  TIP3      H1            -26.7235419417       21.2245134469      -21.0230490766  TIP3      6408            0.0000000000
     37940      6568  TIP3      H2            -26.9704259420       21.7958571493      -22.3715790622  TIP3      6408            0.0000000000
     37941      6569  TIP3      OH2           -18.2832127339        8.8433033863      -23.1574930571  TIP3      6409            0.0000000000
     37942      6569  TIP3      H1            -17.9397954769        9.7368279999      -23.0641863884  TIP3      6409            0.0000000000
     37943      6569  TIP3      H2            -18.7901482780        8.9327781729      -23.9832066141  TIP3      6409            0.0000000000
     37944      6570  TIP3      OH2           -23.8662498946       20.8839115938      -21.7607781425  TIP3      6410            0.0000000000
     37945      6570  TIP3      H1            -23.0348304210       20.4009827522      -21.6366174238  TIP3      6410            0.0000000000
     37946      6570  TIP3      H2            -24.4435820909       20.1852536950      -22.1334519151  TIP3      6410            0.0000000000
     37947      6571  TIP3      OH2           -31.6856099135       19.8767296902      -23.1325335052  TIP3      6411            0.0000000000
     37948      6571  TIP3      H1            -31.7512417916       19.6704021566      -22.1935455269  TIP3      6411            0.0000000000
     37949      6571  TIP3      H2            -30.9131291349       19.3136370550      -23.3950594908  TIP3      6411            0.0000000000
     37950      6572  TIP3      OH2            -3.1249952567       11.0875968343      -20.9176962928  TIP3      6412            0.0000000000
     37951      6572  TIP3      H1             -3.3629060009       11.4547220843      -20.0473893065  TIP3      6412            0.0000000000
     37952      6572  TIP3      H2             -2.8001678471       11.8940695129      -21.3797472423  TIP3      6412            0.0000000000
     37953      6573  TIP3      OH2             0.3577941151        2.9752189593      -20.6390266476  TIP3      6413            0.0000000000
     37954      6573  TIP3      H1             -0.5027354707        3.3975034235      -20.6704738342  TIP3      6413            0.0000000000
     37955      6573  TIP3      H2              0.9211122060        3.7290296774      -20.9288225675  TIP3      6413            0.0000000000
     37956      6574  TIP3      OH2            -2.8201025466       20.0584665607      -21.3582865350  TIP3      6414            0.0000000000
     37957      6574  TIP3      H1             -3.4737552374       19.4285362547      -21.7118324711  TIP3      6414            0.0000000000
     37958      6574  TIP3      H2             -3.2016896181       20.4248422609      -20.5419127399  TIP3      6414            0.0000000000
     37959      6575  TIP3      OH2            -1.9515994602       12.9419446238      -22.4890637048  TIP3      6415            0.0000000000
     37960      6575  TIP3      H1             -2.1828624908       12.6318320302      -23.3879360141  TIP3      6415            0.0000000000
     37961      6575  TIP3      H2             -1.0015461867       13.0702267855      -22.5480863425  TIP3      6415            0.0000000000
     37962      6576  TIP3      OH2            -6.1632489100        6.3266833959      -22.4352031866  TIP3      6416            0.0000000000
     37963      6576  TIP3      H1             -6.7368955408        6.6955447473      -21.7594438213  TIP3      6416            0.0000000000
     37964      6576  TIP3      H2             -6.5696544656        5.4499263002      -22.5515449340  TIP3      6416            0.0000000000
     37965      6577  TIP3      OH2            -9.6281290225        6.7800772914      -23.2566925147  TIP3      6417            0.0000000000
     37966      6577  TIP3      H1            -10.1286474175        6.0997791451      -22.7654735941  TIP3      6417            0.0000000000
     37967      6577  TIP3      H2            -10.3359204865        7.2940652792      -23.6963555301  TIP3      6417            0.0000000000
     37968      6578  TIP3      OH2           -14.7070732853        7.4327657118      -20.5803799767  TIP3      6418            0.0000000000
     37969      6578  TIP3      H1            -14.2293922921        6.9671919259      -21.2989253665  TIP3      6418            0.0000000000
     37970      6578  TIP3      H2            -15.2929304929        7.9961421399      -21.0936583928  TIP3      6418            0.0000000000
     37971      6579  TIP3      OH2            -3.5675963743        7.1635291658      -22.3505174411  TIP3      6419            0.0000000000
     37972      6579  TIP3      H1             -4.4753385496        6.8868694675      -22.1054710493  TIP3      6419            0.0000000000
     37973      6579  TIP3      H2             -3.1994528208        7.5367336575      -21.5089985998  TIP3      6419            0.0000000000
     37974      6580  TIP3      OH2            -2.7278983164        8.4292116884      -20.2133570636  TIP3      6420            0.0000000000
     37975      6580  TIP3      H1             -3.2571809456        8.4222633861      -19.3925344888  TIP3      6420            0.0000000000
     37976      6580  TIP3      H2             -2.7301479307        9.3830226347      -20.4163240975  TIP3      6420            0.0000000000
     37977      6581  TIP3      OH2             2.2492571754        8.8590051598      -21.0282870948  TIP3      6421            0.0000000000
     37978      6581  TIP3      H1              1.5699216361        9.2708855029      -21.5903727116  TIP3      6421            0.0000000000
     37979      6581  TIP3      H2              2.3083516237        9.4713485116      -20.2819769064  TIP3      6421            0.0000000000
     37980      6582  TIP3      OH2             2.0597513665       19.5513955323      -22.6093049843  TIP3      6422            0.0000000000
     37981      6582  TIP3      H1              2.1082610380       20.1161762530      -21.8196849118  TIP3      6422            0.0000000000
     37982      6582  TIP3      H2              1.1542285174       19.1807437513      -22.5877740326  TIP3      6422            0.0000000000
     37983      6583  TIP3      OH2            -8.1838668012       16.7773351384      -23.4851332636  TIP3      6423            0.0000000000
     37984      6583  TIP3      H1             -7.3342609647       16.5063621335      -23.8965967647  TIP3      6423            0.0000000000
     37985      6583  TIP3      H2             -8.5101663556       15.8912735136      -23.2762858597  TIP3      6423            0.0000000000
     37986      6584  TIP3      OH2           -10.5673784892        5.5776142777      -20.8747916782  TIP3      6424            0.0000000000
     37987      6584  TIP3      H1            -10.2853720511        6.4534433696      -20.5612310189  TIP3      6424            0.0000000000
     37988      6584  TIP3      H2             -9.9487935908        4.9938270146      -20.3935105432  TIP3      6424            0.0000000000
     37989      6585  TIP3      OH2           -11.9266421447       16.3911923753      -22.0440217993  TIP3      6425            0.0000000000
     37990      6585  TIP3      H1            -11.0765044039       16.6815630889      -21.7036303399  TIP3      6425            0.0000000000
     37991      6585  TIP3      H2            -11.7045810306       15.4985841475      -22.3424496755  TIP3      6425            0.0000000000
     37992      6586  TIP3      OH2           -14.2986341471        9.6994611474      -22.9993508668  TIP3      6426            0.0000000000
     37993      6586  TIP3      H1            -14.0892574823       10.0352331886      -22.1038397250  TIP3      6426            0.0000000000
     37994      6586  TIP3      H2            -15.2608774673        9.7793163705      -23.0407360651  TIP3      6426            0.0000000000
     37995      6587  TIP3      OH2            -6.5136723488       18.9010382749      -23.6514748255  TIP3      6427            0.0000000000
     37996      6587  TIP3      H1             -7.1200251708       18.2550348460      -23.2349207051  TIP3      6427            0.0000000000
     37997      6587  TIP3      H2             -5.6545415644       18.4219713064      -23.5672398598  TIP3      6427            0.0000000000
     37998      6588  TIP3      OH2            -0.5361531018       18.4385638418      -23.2914545617  TIP3      6428            0.0000000000
     37999      6588  TIP3      H1             -1.3550870531       18.5477457269      -22.7668178682  TIP3      6428            0.0000000000
     38000      6588  TIP3      H2             -0.9868438942       18.2785090518      -24.1385615378  TIP3      6428            0.0000000000
     38001      6589  TIP3      OH2           -10.2688655856       14.1287162212      -23.3905838396  TIP3      6429            0.0000000000
     38002      6589  TIP3      H1            -11.0035697826       13.5917354009      -23.7041533214  TIP3      6429            0.0000000000
     38003      6589  TIP3      H2             -9.7641909960       14.0773363563      -24.2277122608  TIP3      6429            0.0000000000
     38004      6590  TIP3      OH2            -5.7329534652       15.5306793491      -24.0033941952  TIP3      6430            0.0000000000
     38005      6590  TIP3      H1             -5.3517768332       15.8738735177      -23.1864145478  TIP3      6430            0.0000000000
     38006      6590  TIP3      H2             -5.5830702665       14.5707355087      -23.9100482191  TIP3      6430            0.0000000000
     38007      6591  TIP3      OH2             0.2902843461        8.9363373543      -22.8481512140  TIP3      6431            0.0000000000
     38008      6591  TIP3      H1              1.0053880546        9.1863963112      -23.4687485366  TIP3      6431            0.0000000000
     38009      6591  TIP3      H2              0.4044591866        7.9599270996      -22.7941411731  TIP3      6431            0.0000000000
     38010      6592  TIP3      OH2             0.1814940142        6.2867701276      -23.3896159170  TIP3      6432            0.0000000000
     38011      6592  TIP3      H1              0.8278398308        5.7080620166      -22.9291157502  TIP3      6432            0.0000000000
     38012      6592  TIP3      H2             -0.5791232660        5.6759751695      -23.5231554392  TIP3      6432            0.0000000000
     38013      6593  TIP3      OH2             1.8618800062        4.7783838889      -21.8039667148  TIP3      6433            0.0000000000
     38014      6593  TIP3      H1              2.3355349252        4.1972964133      -22.4515468413  TIP3      6433            0.0000000000
     38015      6593  TIP3      H2              2.5976957765        5.3485576144      -21.4858962826  TIP3      6433            0.0000000000
     38016      6594  TIP3      OH2           -13.0860110173        5.9671461362      -22.3078040901  TIP3      6434            0.0000000000
     38017      6594  TIP3      H1            -12.7067289840        5.1887601648      -22.7494799772  TIP3      6434            0.0000000000
     38018      6594  TIP3      H2            -12.5158718479        6.0103928690      -21.5155727753  TIP3      6434            0.0000000000
     38019      6595  TIP3      OH2           -13.4605115651       19.8141799735      -23.4030435084  TIP3      6435            0.0000000000
     38020      6595  TIP3      H1            -13.3764511207       19.7229882036      -22.4543237033  TIP3      6435            0.0000000000
     38021      6595  TIP3      H2            -12.7271246263       19.2711944123      -23.7479257231  TIP3      6435            0.0000000000
     38022      6596  TIP3      OH2            13.4604609065       10.3161306852      -23.0875710073  TIP3      6436            0.0000000000
     38023      6596  TIP3      H1             13.6232778301       10.5164197919      -22.1615033622  TIP3      6436            0.0000000000
     38024      6596  TIP3      H2             14.1727747261        9.6632999014      -23.2564263780  TIP3      6436            0.0000000000
     38025      6597  TIP3      OH2            19.2122411655        3.2358635255      -20.8921764813  TIP3      6437            0.0000000000
     38026      6597  TIP3      H1             18.8870107740        3.1437489765      -19.9815983710  TIP3      6437            0.0000000000
     38027      6597  TIP3      H2             19.6735901234        4.0902502950      -20.8263596739  TIP3      6437            0.0000000000
     38028      6598  TIP3      OH2            20.7344315613       17.0873693671      -22.5173437908  TIP3      6438            0.0000000000
     38029      6598  TIP3      H1             20.8236484909       17.8786607632      -21.9689228347  TIP3      6438            0.0000000000
     38030      6598  TIP3      H2             21.5142928463       16.6079862805      -22.1256450121  TIP3      6438            0.0000000000
     38031      6599  TIP3      OH2            15.8489308540       19.5750072529      -22.1630703331  TIP3      6439            0.0000000000
     38032      6599  TIP3      H1             15.1637100066       19.1972591344      -22.7358697875  TIP3      6439            0.0000000000
     38033      6599  TIP3      H2             15.2752410418       20.1265800943      -21.5801791016  TIP3      6439            0.0000000000
     38034      6600  TIP3      OH2            16.4331535472       12.3773669707      -23.3382922067  TIP3      6440            0.0000000000
     38035      6600  TIP3      H1             16.6813856867       12.3782425950      -24.2893974304  TIP3      6440            0.0000000000
     38036      6600  TIP3      H2             17.3154892170       12.3155066489      -22.9332535418  TIP3      6440            0.0000000000
     38037      6601  TIP3      OH2             3.6548679134        6.5401804008      -20.7902392192  TIP3      6441            0.0000000000
     38038      6601  TIP3      H1              4.2957645436        7.1354900041      -21.2169542065  TIP3      6441            0.0000000000
     38039      6601  TIP3      H2              2.9617151293        7.2179314731      -20.6131857132  TIP3      6441            0.0000000000
     38040      6602  TIP3      OH2            21.1310422140        9.1900387757      -21.3912450281  TIP3      6442            0.0000000000
     38041      6602  TIP3      H1             20.3558984390        8.7926370890      -21.8277395313  TIP3      6442            0.0000000000
     38042      6602  TIP3      H2             20.8338982325       10.1086076572      -21.2664797708  TIP3      6442            0.0000000000
     38043      6603  TIP3      OH2            10.8113298762       16.8951750100      -23.5558570164  TIP3      6443            0.0000000000
     38044      6603  TIP3      H1             10.7905216702       16.5301081858      -24.4570608941  TIP3      6443            0.0000000000
     38045      6603  TIP3      H2             10.2159922875       16.2906119383      -23.0730388363  TIP3      6443            0.0000000000
     38046      6604  TIP3      OH2             9.4644433218       16.1329870499      -20.9801320917  TIP3      6444            0.0000000000
     38047      6604  TIP3      H1              8.6655230446       16.2604580071      -20.4564887375  TIP3      6444            0.0000000000
     38048      6604  TIP3      H2              9.7701824029       17.0560142202      -21.0828202253  TIP3      6444            0.0000000000
     38049      6605  TIP3      OH2             9.9827924878       18.8098722508      -20.5491525858  TIP3      6445            0.0000000000
     38050      6605  TIP3      H1              9.2073382718       19.1495724657      -21.0193270110  TIP3      6445            0.0000000000
     38051      6605  TIP3      H2              9.7966194730       19.0476390896      -19.6154445936  TIP3      6445            0.0000000000
     38052      6606  TIP3      OH2             6.7078648237       16.4075995727      -22.1809204288  TIP3      6446            0.0000000000
     38053      6606  TIP3      H1              6.8399729175       16.0786459680      -21.2810891420  TIP3      6446            0.0000000000
     38054      6606  TIP3      H2              7.1222757529       15.6824286936      -22.6963620577  TIP3      6446            0.0000000000
     38055      6607  TIP3      OH2             4.9447441064        8.6897268118      -22.1395689310  TIP3      6447            0.0000000000
     38056      6607  TIP3      H1              5.1022997597        9.4840750819      -21.5915770855  TIP3      6447            0.0000000000
     38057      6607  TIP3      H2              4.2344248673        8.9906489826      -22.7231698231  TIP3      6447            0.0000000000
     38058      6608  TIP3      OH2            13.0995959684       18.4364619333      -23.2100459515  TIP3      6448            0.0000000000
     38059      6608  TIP3      H1             12.2065811241       18.0158176835      -23.2352704288  TIP3      6448            0.0000000000
     38060      6608  TIP3      H2             13.4386751814       18.1149553317      -24.0646569665  TIP3      6448            0.0000000000
     38061      6609  TIP3      OH2            17.4669600427       17.4043053233      -23.7745722069  TIP3      6449            0.0000000000
     38062      6609  TIP3      H1             17.8317699508       17.6199245131      -22.9054088982  TIP3      6449            0.0000000000
     38063      6609  TIP3      H2             18.2196561393       16.8706624833      -24.1254907452  TIP3      6449            0.0000000000
     38064      6610  TIP3      OH2             7.9083509108       14.2977188214      -23.4295416704  TIP3      6450            0.0000000000
     38065      6610  TIP3      H1              7.9480813954       13.8174363468      -22.5830959106  TIP3      6450            0.0000000000
     38066      6610  TIP3      H2              8.3139265963       13.6526107044      -24.0376898685  TIP3      6450            0.0000000000
     38067      6611  TIP3      OH2            10.5845436705        9.5116320667      -23.0809932450  TIP3      6451            0.0000000000
     38068      6611  TIP3      H1              9.7811286948        9.9657095190      -23.3980569783  TIP3      6451            0.0000000000
     38069      6611  TIP3      H2             11.3118804847       10.0744578571      -23.3899556588  TIP3      6451            0.0000000000
     38070      6612  TIP3      OH2            19.2775320565       12.5387420992      -23.5160474657  TIP3      6452            0.0000000000
     38071      6612  TIP3      H1             19.3199425315       12.1931274443      -24.4313455359  TIP3      6452            0.0000000000
     38072      6612  TIP3      H2             19.5286970810       13.4676109420      -23.7112267190  TIP3      6452            0.0000000000
     38073      6613  TIP3      OH2            21.0666898426       12.0623719738      -21.4963709219  TIP3      6453            0.0000000000
     38074      6613  TIP3      H1             20.5726379630       12.0646325987      -22.3471315406  TIP3      6453            0.0000000000
     38075      6613  TIP3      H2             20.4175508615       12.3904301201      -20.8656608211  TIP3      6453            0.0000000000
     38076      6614  TIP3      OH2            19.0848178196        8.9373154441      -23.3607322266  TIP3      6454            0.0000000000
     38077      6614  TIP3      H1             19.8480069955        9.3551692717      -23.7789909028  TIP3      6454            0.0000000000
     38078      6614  TIP3      H2             18.5986089165        8.5893390046      -24.1246640616  TIP3      6454            0.0000000000
     38079      6615  TIP3      OH2            18.7758948467        6.1717672082      -24.1349923840  TIP3      6455            0.0000000000
     38080      6615  TIP3      H1             19.3710888205        6.3728068472      -23.3797137967  TIP3      6455            0.0000000000
     38081      6615  TIP3      H2             18.0283339724        5.7655380473      -23.6860307351  TIP3      6455            0.0000000000
     38082      6616  TIP3      OH2            20.7517909223        5.3268041915      -21.9635703761  TIP3      6456            0.0000000000
     38083      6616  TIP3      H1             21.1351863486        4.7101529274      -22.6150718863  TIP3      6456            0.0000000000
     38084      6616  TIP3      H2             21.4236105231        5.2984832760      -21.2501203708  TIP3      6456            0.0000000000
     38085      6617  TIP3      OH2             4.2965916755        2.9681075952      -21.1055751305  TIP3      6457            0.0000000000
     38086      6617  TIP3      H1              4.9593065003        3.6823174806      -21.1717784426  TIP3      6457            0.0000000000
     38087      6617  TIP3      H2              3.5476566060        3.4817591646      -20.7632408216  TIP3      6457            0.0000000000
     38088      6618  TIP3      OH2             6.3391040287        5.2497274148      -22.0589990775  TIP3      6458            0.0000000000
     38089      6618  TIP3      H1              6.4065123852        4.8704317884      -22.9455213280  TIP3      6458            0.0000000000
     38090      6618  TIP3      H2              6.5511983530        6.1854237593      -22.1816289180  TIP3      6458            0.0000000000
     38091      6619  TIP3      OH2            13.5016801555       20.9574205054      -21.7524414914  TIP3      6459            0.0000000000
     38092      6619  TIP3      H1             12.8533569456       21.3658411212      -21.1574792676  TIP3      6459            0.0000000000
     38093      6619  TIP3      H2             12.9772324368       20.2486192149      -22.1660336122  TIP3      6459            0.0000000000
     38094      6620  TIP3      OH2             5.7091585110       19.9659004439      -22.9309208257  TIP3      6460            0.0000000000
     38095      6620  TIP3      H1              5.3321232538       19.7860278636      -22.0562054959  TIP3      6460            0.0000000000
     38096      6620  TIP3      H2              6.3608223751       19.2464975977      -23.0292234417  TIP3      6460            0.0000000000
     38097      6621  TIP3      OH2            34.6245976846       11.8235490160      -20.9371572381  TIP3      6461            0.0000000000
     38098      6621  TIP3      H1             34.8789286328       11.8307111771      -20.0014155015  TIP3      6461            0.0000000000
     38099      6621  TIP3      H2             34.0217034503       12.5841357165      -20.9612545890  TIP3      6461            0.0000000000
     38100      6622  TIP3      OH2            34.2964085291       19.1709382259      -22.3394113228  TIP3      6462            0.0000000000
     38101      6622  TIP3      H1             34.2820363847       18.5901358379      -23.1325323608  TIP3      6462            0.0000000000
     38102      6622  TIP3      H2             33.3460434975       19.2616728540      -22.1775948962  TIP3      6462            0.0000000000
     38103      6623  TIP3      OH2            31.3120404393        6.5394550183      -21.8826445623  TIP3      6463            0.0000000000
     38104      6623  TIP3      H1             30.8560360224        5.8492099134      -21.4038373086  TIP3      6463            0.0000000000
     38105      6623  TIP3      H2             30.8417395179        6.5040891950      -22.7347728163  TIP3      6463            0.0000000000
     38106      6624  TIP3      OH2            27.9493387489        6.9166597317      -23.2392406669  TIP3      6464            0.0000000000
     38107      6624  TIP3      H1             27.0947317369        6.9586398777      -22.8142455533  TIP3      6464            0.0000000000
     38108      6624  TIP3      H2             27.9343838916        7.7161865703      -23.7927094909  TIP3      6464            0.0000000000
     38109      6625  TIP3      OH2            27.3121889373        9.8082672679      -22.3232863631  TIP3      6465            0.0000000000
     38110      6625  TIP3      H1             26.7801115674        9.6145072135      -23.1210468567  TIP3      6465            0.0000000000
     38111      6625  TIP3      H2             28.1912240570        9.8178029948      -22.7522826778  TIP3      6465            0.0000000000
     38112      6626  TIP3      OH2            34.0565791462        6.7708449583      -22.2076098029  TIP3      6466            0.0000000000
     38113      6626  TIP3      H1             33.0782270428        6.7979066473      -22.1906984435  TIP3      6466            0.0000000000
     38114      6626  TIP3      H2             34.2480752509        7.5452339438      -21.6492359137  TIP3      6466            0.0000000000
     38115      6627  TIP3      OH2            34.3196693635        8.7775939727      -20.3615726940  TIP3      6467            0.0000000000
     38116      6627  TIP3      H1             34.1026102510        8.6002618041      -19.4255184966  TIP3      6467            0.0000000000
     38117      6627  TIP3      H2             34.4626945587        9.7328884937      -20.2965342570  TIP3      6467            0.0000000000
     38118      6628  TIP3      OH2            32.4164250876       15.4342124862      -20.4506326690  TIP3      6468            0.0000000000
     38119      6628  TIP3      H1             32.1178020889       16.0163606649      -21.1741896235  TIP3      6468            0.0000000000
     38120      6628  TIP3      H2             32.0782452332       15.8697658013      -19.6648999416  TIP3      6468            0.0000000000
     38121      6629  TIP3      OH2            23.8106983088       12.6716244837      -22.0768806771  TIP3      6469            0.0000000000
     38122      6629  TIP3      H1             23.6390562578       13.6273774689      -22.1103810142  TIP3      6469            0.0000000000
     38123      6629  TIP3      H2             22.8917639898       12.3336604313      -22.0385753991  TIP3      6469            0.0000000000
     38124      6630  TIP3      OH2            29.0221981552       16.5712694088      -23.5998899348  TIP3      6470            0.0000000000
     38125      6630  TIP3      H1             29.4362408698       16.0438392918      -24.2974803112  TIP3      6470            0.0000000000
     38126      6630  TIP3      H2             29.1795926117       16.0312290018      -22.8089990594  TIP3      6470            0.0000000000
     38127      6631  TIP3      OH2            28.6031978064       16.1299285143      -20.8788274920  TIP3      6471            0.0000000000
     38128      6631  TIP3      H1             29.0445141228       16.4185522296      -20.0607792000  TIP3      6471            0.0000000000
     38129      6631  TIP3      H2             28.4373762666       17.0079173112      -21.2516960678  TIP3      6471            0.0000000000
     38130      6632  TIP3      OH2            23.8401430383        9.0159865213      -22.5014197237  TIP3      6472            0.0000000000
     38131      6632  TIP3      H1             24.1581820432        9.8001959444      -22.0535900925  TIP3      6472            0.0000000000
     38132      6632  TIP3      H2             22.9904582281        8.8625148875      -22.0290115199  TIP3      6472            0.0000000000
     38133      6633  TIP3      OH2            31.7484837452       17.6242087187      -22.1745263999  TIP3      6473            0.0000000000
     38134      6633  TIP3      H1             31.0610039109       18.3254761177      -22.3008504883  TIP3      6473            0.0000000000
     38135      6633  TIP3      H2             32.1638020458       17.6442966258      -23.0413215976  TIP3      6473            0.0000000000
     38136      6634  TIP3      OH2            26.7731874334       14.1800716591      -23.9161583133  TIP3      6474            0.0000000000
     38137      6634  TIP3      H1             26.6748248879       13.3503022087      -23.4210743368  TIP3      6474            0.0000000000
     38138      6634  TIP3      H2             27.6460671200       14.0855677257      -24.3560435353  TIP3      6474            0.0000000000
     38139      6635  TIP3      OH2            32.7219872236       15.0148651828      -23.9104540473  TIP3      6475            0.0000000000
     38140      6635  TIP3      H1             31.9030088240       15.4873508792      -23.7301456922  TIP3      6475            0.0000000000
     38141      6635  TIP3      H2             32.4193185581       14.0837852473      -23.9669842535  TIP3      6475            0.0000000000
     38142      6636  TIP3      OH2            24.1181688867       19.5053706636      -23.4248007957  TIP3      6476            0.0000000000
     38143      6636  TIP3      H1             24.0854268349       19.1078275629      -22.5353444076  TIP3      6476            0.0000000000
     38144      6636  TIP3      H2             25.0396377286       19.8121098945      -23.5043328598  TIP3      6476            0.0000000000
     38145      6637  TIP3      OH2           -24.1167819616       29.5277738857      -22.9922732632  TIP3      6477            0.0000000000
     38146      6637  TIP3      H1            -24.4488768442       29.7420493593      -22.1102636115  TIP3      6477            0.0000000000
     38147      6637  TIP3      H2            -23.5489727170       28.7412616515      -22.8712976535  TIP3      6477            0.0000000000
     38148      6638  TIP3      OH2           -28.7925777939       25.2906104851      -22.8492301740  TIP3      6478            0.0000000000
     38149      6638  TIP3      H1            -28.2194804868       25.8034984429      -22.2357454874  TIP3      6478            0.0000000000
     38150      6638  TIP3      H2            -29.1853735500       25.9859245268      -23.4165161589  TIP3      6478            0.0000000000
     38151      6639  TIP3      OH2           -21.4997210547       34.6663076666      -22.0483812818  TIP3      6479            0.0000000000
     38152      6639  TIP3      H1            -20.9078671452       34.7064363282      -21.2773490213  TIP3      6479            0.0000000000
     38153      6639  TIP3      H2            -22.3509155239       34.3918021670      -21.6772836830  TIP3      6479            0.0000000000
     38154      6640  TIP3      OH2           -31.7773003481       32.3876984785      -21.3032886739  TIP3      6480            0.0000000000
     38155      6640  TIP3      H1            -32.0902000142       32.5803868128      -20.3984678753  TIP3      6480            0.0000000000
     38156      6640  TIP3      H2            -30.9171642751       31.9728596841      -21.1311604903  TIP3      6480            0.0000000000
     38157      6641  TIP3      OH2           -30.8098231272       34.9133640631      -21.8370724291  TIP3      6481            0.0000000000
     38158      6641  TIP3      H1            -30.5800585046       34.2857191089      -21.1376936255  TIP3      6481            0.0000000000
     38159      6641  TIP3      H2            -30.6302784471       34.3365078066      -22.6069675207  TIP3      6481            0.0000000000
     38160      6642  TIP3      OH2           -29.5934944813       33.2168395005      -23.6901574126  TIP3      6482            0.0000000000
     38161      6642  TIP3      H1            -29.4896700947       32.6183319013      -22.9264583243  TIP3      6482            0.0000000000
     38162      6642  TIP3      H2            -29.2374490903       32.6335815178      -24.3941147906  TIP3      6482            0.0000000000
     38163      6643  TIP3      OH2           -23.8757151651       34.1510315612      -23.9376589791  TIP3      6483            0.0000000000
     38164      6643  TIP3      H1            -24.7667199538       34.5036882897      -23.8088968459  TIP3      6483            0.0000000000
     38165      6643  TIP3      H2            -24.0585839845       33.2548277889      -24.3248319243  TIP3      6483            0.0000000000
     38166      6644  TIP3      OH2           -28.5630949959       30.9812753506      -21.8188399196  TIP3      6484            0.0000000000
     38167      6644  TIP3      H1            -28.8434190141       31.4163572409      -20.9761583147  TIP3      6484            0.0000000000
     38168      6644  TIP3      H2            -27.7871998566       30.4786983601      -21.5115974748  TIP3      6484            0.0000000000
     38169      6645  TIP3      OH2           -27.0773305012       29.1415009277      -23.1201006593  TIP3      6485            0.0000000000
     38170      6645  TIP3      H1            -27.9674258865       29.5512934650      -23.2137133176  TIP3      6485            0.0000000000
     38171      6645  TIP3      H2            -26.5968847788       29.6398629601      -23.8037052952  TIP3      6485            0.0000000000
     38172      6646  TIP3      OH2           -17.7494216036       31.8133332808      -23.1997732522  TIP3      6486            0.0000000000
     38173      6646  TIP3      H1            -16.9189557798       31.6711742781      -23.6766582340  TIP3      6486            0.0000000000
     38174      6646  TIP3      H2            -17.4883000901       32.4751001513      -22.5419429516  TIP3      6486            0.0000000000
     38175      6647  TIP3      OH2           -33.5614917949       34.7134610756      -23.2005123290  TIP3      6487            0.0000000000
     38176      6647  TIP3      H1            -33.0713082845       34.4156141790      -22.4161468115  TIP3      6487            0.0000000000
     38177      6647  TIP3      H2            -33.9184559008       33.8673374813      -23.5137580404  TIP3      6487            0.0000000000
     38178      6648  TIP3      OH2           -18.3513580975       27.8132227030      -22.2733477294  TIP3      6488            0.0000000000
     38179      6648  TIP3      H1            -17.9537467695       28.4862756679      -22.8625751287  TIP3      6488            0.0000000000
     38180      6648  TIP3      H2            -19.1309724053       27.5324975180      -22.7723111662  TIP3      6488            0.0000000000
     38181      6649  TIP3      OH2           -19.4765977853       25.0856255128      -23.6652764328  TIP3      6489            0.0000000000
     38182      6649  TIP3      H1            -18.6731439978       25.6186176241      -23.7792371371  TIP3      6489            0.0000000000
     38183      6649  TIP3      H2            -19.2874916534       24.3650884850      -24.2826470602  TIP3      6489            0.0000000000
     38184      6650  TIP3      OH2           -33.4870720383       21.9099533368      -21.4414192444  TIP3      6490            0.0000000000
     38185      6650  TIP3      H1            -32.8474100120       22.6389570414      -21.5033904226  TIP3      6490            0.0000000000
     38186      6650  TIP3      H2            -34.2334556713       22.2976917464      -20.9777558594  TIP3      6490            0.0000000000
     38187      6651  TIP3      OH2           -31.3357373128       24.5380461551      -22.3161078209  TIP3      6491            0.0000000000
     38188      6651  TIP3      H1            -31.2604107874       23.6969116251      -22.7733180474  TIP3      6491            0.0000000000
     38189      6651  TIP3      H2            -30.3882326212       24.8156304840      -22.3722594061  TIP3      6491            0.0000000000
     38190      6652  TIP3      OH2            -5.6007163299       28.2877685505      -22.5493197240  TIP3      6492            0.0000000000
     38191      6652  TIP3      H1             -5.0948189861       28.7076342281      -21.8409775683  TIP3      6492            0.0000000000
     38192      6652  TIP3      H2             -4.9471544617       27.6678953316      -22.9303667649  TIP3      6492            0.0000000000
     38193      6653  TIP3      OH2             0.3388772202       21.7411920637      -20.8031462548  TIP3      6493            0.0000000000
     38194      6653  TIP3      H1             -0.3705356746       21.1298998630      -20.5296101776  TIP3      6493            0.0000000000
     38195      6653  TIP3      H2             -0.0537847412       22.5595630756      -20.4569826252  TIP3      6493            0.0000000000
     38196      6654  TIP3      OH2            -1.0954961115       30.6953474568      -22.6711610999  TIP3      6494            0.0000000000
     38197      6654  TIP3      H1             -1.8761861236       30.9798943813      -23.1636263862  TIP3      6494            0.0000000000
     38198      6654  TIP3      H2             -0.8866720262       31.5094498002      -22.1909129551  TIP3      6494            0.0000000000
     38199      6655  TIP3      OH2            -6.6538472898       24.5321319472      -22.6318215652  TIP3      6495            0.0000000000
     38200      6655  TIP3      H1             -6.8899488009       25.4289846148      -22.9355967985  TIP3      6495            0.0000000000
     38201      6655  TIP3      H2             -7.4538347474       24.0365190101      -22.9102388946  TIP3      6495            0.0000000000
     38202      6656  TIP3      OH2           -10.0439758173       25.3154620002      -23.5175252931  TIP3      6496            0.0000000000
     38203      6656  TIP3      H1            -10.1143855959       26.1229019219      -22.9810720070  TIP3      6496            0.0000000000
     38204      6656  TIP3      H2            -10.4252545544       25.6677484402      -24.3391768223  TIP3      6496            0.0000000000
     38205      6657  TIP3      OH2            -3.7471636097       25.8440711813      -21.7167794543  TIP3      6497            0.0000000000
     38206      6657  TIP3      H1             -3.9931165182       25.0166011897      -21.2327332901  TIP3      6497            0.0000000000
     38207      6657  TIP3      H2             -3.1645548679       26.2632297104      -21.0664039248  TIP3      6497            0.0000000000
     38208      6658  TIP3      OH2           -14.4995976180       30.2909139416      -22.1690493938  TIP3      6498            0.0000000000
     38209      6658  TIP3      H1            -13.8665189005       30.2654009164      -21.4265709304  TIP3      6498            0.0000000000
     38210      6658  TIP3      H2            -15.1375646571       30.9318764169      -21.8641709649  TIP3      6498            0.0000000000
     38211      6659  TIP3      OH2           -12.9326894187       32.2586641461      -19.9985049214  TIP3      6499            0.0000000000
     38212      6659  TIP3      H1            -12.3176914810       31.7495041674      -19.4412942021  TIP3      6499            0.0000000000
     38213      6659  TIP3      H2            -12.4082851309       32.3868863539      -20.8019316091  TIP3      6499            0.0000000000
     38214      6660  TIP3      OH2           -12.0964305161       33.9744108899      -22.1522799979  TIP3      6500            0.0000000000
     38215      6660  TIP3      H1            -11.8920344581       34.5922227115      -22.8906701196  TIP3      6500            0.0000000000
     38216      6660  TIP3      H2            -11.6287913876       33.2215350855      -22.5494458791  TIP3      6500            0.0000000000
     38217      6661  TIP3      OH2           -13.7858126368       27.3585218113      -22.6925383998  TIP3      6501            0.0000000000
     38218      6661  TIP3      H1            -13.3072279653       28.0547441654      -22.2054569704  TIP3      6501            0.0000000000
     38219      6661  TIP3      H2            -14.6710512141       27.7414408230      -22.7564386663  TIP3      6501            0.0000000000
     38220      6662  TIP3      OH2           -10.5318104221       32.2202890926      -23.8677927618  TIP3      6502            0.0000000000
     38221      6662  TIP3      H1            -10.2246600761       31.5564092298      -23.2092303580  TIP3      6502            0.0000000000
     38222      6662  TIP3      H2             -9.8178346544       32.2135991465      -24.5268851173  TIP3      6502            0.0000000000
     38223      6663  TIP3      OH2            -5.1745527151       34.2424595100      -22.8406334766  TIP3      6503            0.0000000000
     38224      6663  TIP3      H1             -4.4719116466       33.8734009089      -22.2655834550  TIP3      6503            0.0000000000
     38225      6663  TIP3      H2             -5.3815234256       33.4534198800      -23.3607832662  TIP3      6503            0.0000000000
     38226      6664  TIP3      OH2             1.2124196108       31.5304937871      -23.7235496609  TIP3      6504            0.0000000000
     38227      6664  TIP3      H1              0.6563919568       31.2943771381      -24.4843728880  TIP3      6504            0.0000000000
     38228      6664  TIP3      H2              1.1765603208       32.5116184832      -23.8058083537  TIP3      6504            0.0000000000
     38229      6665  TIP3      OH2           -15.4245932955       34.1738528483      -22.0681006183  TIP3      6505            0.0000000000
     38230      6665  TIP3      H1            -14.7998979213       33.8428776219      -21.4013753099  TIP3      6505            0.0000000000
     38231      6665  TIP3      H2            -15.1285427553       33.6693887799      -22.8632211989  TIP3      6505            0.0000000000
     38232      6666  TIP3      OH2             1.9942234808       30.4773838992      -21.3301295662  TIP3      6506            0.0000000000
     38233      6666  TIP3      H1              1.5453714305       30.6716587444      -22.1762427656  TIP3      6506            0.0000000000
     38234      6666  TIP3      H2              1.3638004752       30.9190125094      -20.7440335386  TIP3      6506            0.0000000000
     38235      6667  TIP3      OH2             0.3496694471       27.7131820057      -23.1519088536  TIP3      6507            0.0000000000
     38236      6667  TIP3      H1             -0.2733825111       28.3734974309      -23.4862114986  TIP3      6507            0.0000000000
     38237      6667  TIP3      H2             -0.0001542452       26.8536292620      -23.4907099706  TIP3      6507            0.0000000000
     38238      6668  TIP3      OH2            -0.4739355368       25.1247066633      -23.5511986162  TIP3      6508            0.0000000000
     38239      6668  TIP3      H1              0.0342920807       24.6851475886      -22.8444649515  TIP3      6508            0.0000000000
     38240      6668  TIP3      H2             -1.3694224720       24.7416587599      -23.4786822541  TIP3      6508            0.0000000000
     38241      6669  TIP3      OH2             1.7329822095       24.0224263089      -21.9914858228  TIP3      6509            0.0000000000
     38242      6669  TIP3      H1              1.3400277928       23.2231234245      -22.3980630320  TIP3      6509            0.0000000000
     38243      6669  TIP3      H2              2.6430211262       23.6825553182      -21.9438757438  TIP3      6509            0.0000000000
     38244      6670  TIP3      OH2           -12.5200551172       23.6689366152      -22.9205770712  TIP3      6510            0.0000000000
     38245      6670  TIP3      H1            -12.4397034559       22.8131987685      -23.3988632322  TIP3      6510            0.0000000000
     38246      6670  TIP3      H2            -11.6195625287       24.0174392061      -23.0190020815  TIP3      6510            0.0000000000
     38247      6671  TIP3      OH2            13.2834112580       28.8612907003      -22.6856438699  TIP3      6511            0.0000000000
     38248      6671  TIP3      H1             13.1797817355       28.4557475657      -21.8097159903  TIP3      6511            0.0000000000
     38249      6671  TIP3      H2             13.8995551689       28.2205204333      -23.0895510746  TIP3      6511            0.0000000000
     38250      6672  TIP3      OH2            17.4639896966       30.8507698701      -22.8832076833  TIP3      6512            0.0000000000
     38251      6672  TIP3      H1             17.3477994546       30.5732858413      -23.8128441186  TIP3      6512            0.0000000000
     38252      6672  TIP3      H2             18.4365333725       30.9565905562      -22.8011448764  TIP3      6512            0.0000000000
     38253      6673  TIP3      OH2            13.9379434817       33.5740235139      -21.2749374109  TIP3      6513            0.0000000000
     38254      6673  TIP3      H1             14.3923052091       33.4817934584      -20.4261509765  TIP3      6513            0.0000000000
     38255      6673  TIP3      H2             13.1704941076       32.9803269031      -21.0882654727  TIP3      6513            0.0000000000
     38256      6674  TIP3      OH2            21.3323192119       27.9991204713      -20.9763306041  TIP3      6514            0.0000000000
     38257      6674  TIP3      H1             20.5569768196       27.7216016014      -21.4972597392  TIP3      6514            0.0000000000
     38258      6674  TIP3      H2             21.1296962071       27.6493492331      -20.0883073847  TIP3      6514            0.0000000000
     38259      6675  TIP3      OH2             4.9506818835       30.5428424151      -22.1827753116  TIP3      6515            0.0000000000
     38260      6675  TIP3      H1              5.1710636319       30.2766313639      -21.2630103768  TIP3      6515            0.0000000000
     38261      6675  TIP3      H2              4.4447128796       31.3575741815      -22.0550715483  TIP3      6515            0.0000000000
     38262      6676  TIP3      OH2            16.5159043573       33.9021428351      -21.9152608071  TIP3      6516            0.0000000000
     38263      6676  TIP3      H1             16.7629792482       34.6083281759      -21.2961040456  TIP3      6516            0.0000000000
     38264      6676  TIP3      H2             15.5391995904       33.8718106403      -21.7984514307  TIP3      6516            0.0000000000
     38265      6677  TIP3      OH2             7.0102741107       34.4064479082      -21.6594345983  TIP3      6517            0.0000000000
     38266      6677  TIP3      H1              6.8460674391       35.2263015795      -22.1587193968  TIP3      6517            0.0000000000
     38267      6677  TIP3      H2              7.5922851871       33.8801402382      -22.2384070731  TIP3      6517            0.0000000000
     38268      6678  TIP3      OH2             4.8586117288       27.6513681841      -22.4538172725  TIP3      6518            0.0000000000
     38269      6678  TIP3      H1              5.2747151231       28.4872458706      -22.1683414469  TIP3      6518            0.0000000000
     38270      6678  TIP3      H2              5.4348524033       27.0328316393      -21.9858261818  TIP3      6518            0.0000000000
     38271      6679  TIP3      OH2             8.2352071111       33.0878308508      -23.7856581093  TIP3      6519            0.0000000000
     38272      6679  TIP3      H1              7.3926137247       32.6235676957      -23.6350896906  TIP3      6519            0.0000000000
     38273      6679  TIP3      H2              8.3398102314       32.9543648265      -24.7478034505  TIP3      6519            0.0000000000
     38274      6680  TIP3      OH2            12.6839272316       33.9191846871      -23.8413222982  TIP3      6520            0.0000000000
     38275      6680  TIP3      H1             13.1951255745       34.1280353087      -23.0386435895  TIP3      6520            0.0000000000
     38276      6680  TIP3      H2             13.1775081106       33.1597007721      -24.1818553992  TIP3      6520            0.0000000000
     38277      6681  TIP3      OH2             9.3169878213       30.9738598736      -21.1492457282  TIP3      6521            0.0000000000
     38278      6681  TIP3      H1             10.1270151693       31.2289772971      -20.6332429381  TIP3      6521            0.0000000000
     38279      6681  TIP3      H2              9.5387396901       30.0282441845      -21.3358798324  TIP3      6521            0.0000000000
     38280      6682  TIP3      OH2            10.2568861578       29.0128251949      -22.5953486401  TIP3      6522            0.0000000000
     38281      6682  TIP3      H1              9.9438192552       28.6179670467      -23.4241349999  TIP3      6522            0.0000000000
     38282      6682  TIP3      H2             11.1732669310       28.7135030781      -22.5144636168  TIP3      6522            0.0000000000
     38283      6683  TIP3      OH2            19.9991089959       31.4515782851      -23.4734127279  TIP3      6523            0.0000000000
     38284      6683  TIP3      H1             19.7311244530       31.0435363693      -24.3173320111  TIP3      6523            0.0000000000
     38285      6683  TIP3      H2             19.6202303841       32.3452619572      -23.6029847398  TIP3      6523            0.0000000000
     38286      6684  TIP3      OH2             3.8956912588       33.6513571392      -22.2053991313  TIP3      6524            0.0000000000
     38287      6684  TIP3      H1              4.3271128563       34.4259388013      -22.5849652089  TIP3      6524            0.0000000000
     38288      6684  TIP3      H2              3.5286168506       33.2097087882      -22.9891539229  TIP3      6524            0.0000000000
     38289      6685  TIP3      OH2            19.1105109845       27.5105318413      -23.2627260936  TIP3      6525            0.0000000000
     38290      6685  TIP3      H1             19.4352677477       27.9794070832      -24.0368190687  TIP3      6525            0.0000000000
     38291      6685  TIP3      H2             18.7380208432       26.6964539477      -23.6497284879  TIP3      6525            0.0000000000
     38292      6686  TIP3      OH2            17.9822877075       24.9393464717      -23.7780449252  TIP3      6526            0.0000000000
     38293      6686  TIP3      H1             18.7000130050       24.7937373634      -23.1449578624  TIP3      6526            0.0000000000
     38294      6686  TIP3      H2             17.4146868049       24.1666792499      -23.6476791839  TIP3      6526            0.0000000000
     38295      6687  TIP3      OH2            31.8597520405       29.1969717902      -22.4633191732  TIP3      6527            0.0000000000
     38296      6687  TIP3      H1             32.5196860126       29.6846802987      -21.9148007095  TIP3      6527            0.0000000000
     38297      6687  TIP3      H2             32.4600163916       28.5891831320      -22.9315291109  TIP3      6527            0.0000000000
     38298      6688  TIP3      OH2            33.8750238789       30.6471489591      -21.1633756151  TIP3      6528            0.0000000000
     38299      6688  TIP3      H1             34.0379045893       29.9496277531      -20.4822732719  TIP3      6528            0.0000000000
     38300      6688  TIP3      H2             34.1195932475       31.4451686847      -20.6498958031  TIP3      6528            0.0000000000
     38301      6689  TIP3      OH2            27.6027788428       25.2784077369      -22.8587686646  TIP3      6529            0.0000000000
     38302      6689  TIP3      H1             27.9019539023       24.6140458642      -23.4948291932  TIP3      6529            0.0000000000
     38303      6689  TIP3      H2             27.1446418036       25.9350452845      -23.4417794892  TIP3      6529            0.0000000000
     38304      6690  TIP3      OH2            34.0436298979       24.4598314825      -21.8291133856  TIP3      6530            0.0000000000
     38305      6690  TIP3      H1             33.6766187458       25.3058038770      -22.1443566703  TIP3      6530            0.0000000000
     38306      6690  TIP3      H2             34.2045194887       24.7850792455      -20.9327199681  TIP3      6530            0.0000000000
     38307      6691  TIP3      OH2            33.1170376224       26.7224030361      -20.9406437994  TIP3      6531            0.0000000000
     38308      6691  TIP3      H1             33.2745778569       27.2725322417      -20.1408598585  TIP3      6531            0.0000000000
     38309      6691  TIP3      H2             33.5617840993       27.2921227014      -21.5869531484  TIP3      6531            0.0000000000
     38310      6692  TIP3      OH2            32.0545689615       34.4129049775      -20.6245056478  TIP3      6532            0.0000000000
     38311      6692  TIP3      H1             31.3535534858       34.9847063727      -20.2830426080  TIP3      6532            0.0000000000
     38312      6692  TIP3      H2             32.1944696058       33.8130973463      -19.8466517406  TIP3      6532            0.0000000000
     38313      6693  TIP3      OH2            25.2967992025       34.3972575544      -21.1117367265  TIP3      6533            0.0000000000
     38314      6693  TIP3      H1             25.7379514553       35.2563516516      -21.0499497450  TIP3      6533            0.0000000000
     38315      6693  TIP3      H2             25.8704921534       33.9343890061      -21.7475577368  TIP3      6533            0.0000000000
     38316      6694  TIP3      OH2            23.3078166613       27.9731966073      -22.7692962857  TIP3      6534            0.0000000000
     38317      6694  TIP3      H1             23.8030741680       27.8033179920      -21.9597834189  TIP3      6534            0.0000000000
     38318      6694  TIP3      H2             22.3978982037       27.9401460799      -22.3877805400  TIP3      6534            0.0000000000
     38319      6695  TIP3      OH2            27.1673302213       33.0182703068      -23.6558394981  TIP3      6535            0.0000000000
     38320      6695  TIP3      H1             27.6775524116       32.2836032511      -23.2913683486  TIP3      6535            0.0000000000
     38321      6695  TIP3      H2             27.8610471664       33.3633131625      -24.2588914480  TIP3      6535            0.0000000000
     38322      6696  TIP3      OH2            32.6204788755       34.0752848717      -23.6529405539  TIP3      6536            0.0000000000
     38323      6696  TIP3      H1             32.4843822044       34.3899274442      -22.7434960268  TIP3      6536            0.0000000000
     38324      6696  TIP3      H2             32.3762503970       33.1347003317      -23.5605261566  TIP3      6536            0.0000000000
     38325      6697  TIP3      OH2            23.0800072447       34.6569068388      -22.7980154324  TIP3      6537            0.0000000000
     38326      6697  TIP3      H1             23.8575935693       34.4579112268      -22.2411703805  TIP3      6537            0.0000000000
     38327      6697  TIP3      H2             23.0130077847       33.8366426000      -23.3387600838  TIP3      6537            0.0000000000
     38328      6698  TIP3      OH2            25.4588216567       23.7850577077      -22.1223162349  TIP3      6538            0.0000000000
     38329      6698  TIP3      H1             25.6941488342       23.0255399137      -22.6920971869  TIP3      6538            0.0000000000
     38330      6698  TIP3      H2             26.3145803550       24.2577187740      -22.1172343745  TIP3      6538            0.0000000000
     38331      6699  POT       POT            25.7900169266       24.2289886699       34.5065559768  IONS      1               1.0000000000
     38332      6700  POT       POT            -3.1104050709       30.4812383034       28.2232356616  IONS      2               1.0000000000
     38333      6701  POT       POT            -0.9656623639      -16.7242097551       39.6107842025  IONS      3               1.0000000000
     38334      6702  POT       POT           -12.6530438707      -18.5618176279      -29.8102764180  IONS      4               1.0000000000
     38335      6703  POT       POT            15.1779949395       11.7584226782      -36.7802086620  IONS      5               1.0000000000
     38336      6704  POT       POT             2.4690650001      -19.5254496632       32.1456426416  IONS      6               1.0000000000
     38337      6705  POT       POT            21.5319818231      -16.4205408263      -33.2733580512  IONS      7               1.0000000000
     38338      6706  POT       POT            10.4275472496       31.7827424628      -23.2819496515  IONS      8               1.0000000000
     38339      6707  POT       POT            23.8280474574        5.3227737467      -37.3281110176  IONS      9               1.0000000000
     38340      6708  POT       POT             4.3981166997      -10.9263190564       31.5108303978  IONS      10              1.0000000000
     38341      6709  POT       POT             1.3588925317      -30.6034656865      -33.7560963600  IONS      11              1.0000000000
     38342      6710  POT       POT            -6.8022230749       23.0226377425      -40.5886460115  IONS      12              1.0000000000
     38343      6711  POT       POT           -34.9580974236       -4.0193286227       30.8963924737  IONS      13              1.0000000000
     38344      6712  POT       POT             9.9851783795        5.7844059558      -31.9765690548  IONS      14              1.0000000000
     38345      6713  POT       POT            33.0347219435      -29.5741117555       24.3073674913  IONS      15              1.0000000000
     38346      6714  POT       POT           -26.8416084314       -1.0790585122       27.4520189118  IONS      16              1.0000000000
     38347      6715  POT       POT           -12.4100665576       13.6101993077      -30.6175319982  IONS      17              1.0000000000
     38348      6716  POT       POT            20.8795008471      -34.1511033665       29.5856206287  IONS      18              1.0000000000
     38349      6717  POT       POT            33.7054150012       -4.7813620269      -38.4585949427  IONS      19              1.0000000000
     38350      6718  POT       POT            17.4319939075       20.0203221039      -24.4772396465  IONS      20              1.0000000000
     38351      6719  POT       POT           -12.1079156487       25.7518967390      -38.0632117035  IONS      21              1.0000000000
     38352      6720  POT       POT           -33.8646249866       14.9728253902       36.2777457563  IONS      22              1.0000000000
     38353      6721  POT       POT           -18.2049344046        9.1650732742      -30.7262685085  IONS      23              1.0000000000
     38354      6722  POT       POT            10.9241645829      -32.8538661838      -31.3905369536  IONS      24              1.0000000000
     38355      6723  POT       POT            23.3333549548       34.8661365128      -30.6010477627  IONS      25              1.0000000000
     38356      6724  POT       POT            24.8176597765       28.6924145131      -39.7974226132  IONS      26              1.0000000000
     38357      6725  POT       POT            -7.9346903741      -20.5092277872      -37.0294843008  IONS      27              1.0000000000
     38358      6726  POT       POT            24.7145050586       21.8365755853      -38.0377034790  IONS      28              1.0000000000
     38359      6727  POT       POT            25.7597873069       17.1220241627      -23.5760758723  IONS      29              1.0000000000
     38360      6728  POT       POT            -0.3859788777       23.4477907555       37.4649213830  IONS      30              1.0000000000
     38361      6729  POT       POT            28.0855089386        6.8386920958       30.3516324672  IONS      31              1.0000000000
     38362      6730  POT       POT            -6.0900890759      -22.2596851376       37.0112629635  IONS      32              1.0000000000
     38363      6731  POT       POT           -26.5722643768        0.4422518881      -37.4539762817  IONS      33              1.0000000000
     38364      6732  POT       POT            -5.3405383889       23.2990246473      -24.8030987695  IONS      34              1.0000000000
     38365      6733  POT       POT           -11.4257466868      -33.8034781099      -34.4684339381  IONS      35              1.0000000000
     38366      6734  POT       POT           -14.7747000296       -3.0496877958       37.1029405955  IONS      36              1.0000000000
     38367      6735  POT       POT            23.5232688800      -15.5606049386      -22.7112628381  IONS      37              1.0000000000
     38368      6736  POT       POT           -11.6113092619      -19.1006683026      -42.2239223656  IONS      38              1.0000000000
     38369      6737  POT       POT           -11.5700921536      -30.0636871283      -29.1483481773  IONS      39              1.0000000000
     38370      6738  POT       POT            -1.9049640237        8.1553739919      -24.2105260406  IONS      40              1.0000000000
     38371      6739  POT       POT           -10.8695885103       10.6799331515       37.2046451797  IONS      41              1.0000000000
     38372      6740  POT       POT             1.2518613444       -0.9361955281      -36.0761594215  IONS      42              1.0000000000
     38373      6741  POT       POT             7.0026560382       16.5460972726      -26.6537635370  IONS      43              1.0000000000
     38374      6742  POT       POT            20.3383381039      -27.4017762087      -27.7414942417  IONS      44              1.0000000000
     38375      6743  POT       POT           -29.5944630358       33.7625603800      -34.8114044578  IONS      45              1.0000000000
     38376      6744  POT       POT            -1.4478881955       -4.9260519657      -16.3443858070  IONS      46              1.0000000000
     38377      6745  POT       POT           -21.5223403222      -23.8826419608       26.3407199703  IONS      47              1.0000000000
     38378      6746  POT       POT             8.2198355336       19.3367817601      -40.8767006443  IONS      48              1.0000000000
     38379      6747  POT       POT            29.6850503349      -11.7600281398       39.8042260546  IONS      49              1.0000000000
     38380      6748  POT       POT           -27.3774422677      -32.2485329431      -26.2096975781  IONS      50              1.0000000000
     38381      6749  POT       POT             0.4361262805       -2.9071020107       25.6857715054  IONS      51              1.0000000000
     38382      6750  POT       POT             7.1636426664      -26.4767615589       36.5707114642  IONS      52              1.0000000000
     38383      6751  POT       POT            23.8672299558       24.4928800211       26.6953732608  IONS      53              1.0000000000
     38384      6752  POT       POT             0.0231738117      -26.3150549769      -23.9690038290  IONS      54              1.0000000000
     38385      6753  POT       POT             3.5969174685       19.6124550655       33.8452225475  IONS      55              1.0000000000
     38386      6754  POT       POT            21.6503562465      -28.9648056508       28.1953780907  IONS      56              1.0000000000
     38387      6755  POT       POT             6.3266596439      -15.3379612509      -30.9783686125  IONS      57              1.0000000000
     38388      6756  POT       POT           -26.1829961613      -34.2879276460      -41.6552457220  IONS      58              1.0000000000
     38389      6757  POT       POT             2.3667038700       15.9970130190       25.3900429963  IONS      59              1.0000000000
     38390      6758  POT       POT            29.6032511402       27.0904621247       40.9694001785  IONS      60              1.0000000000
     38391      6759  POT       POT           -25.6724968207       11.5127795703       37.9744742352  IONS      61              1.0000000000
     38392      6760  POT       POT            17.8938937467       25.7004997104      -31.2085946106  IONS      62              1.0000000000
     38393      6761  POT       POT           -27.2171734075      -28.0106127263      -30.5521634910  IONS      63              1.0000000000
     38394      6762  POT       POT           -34.2713090923      -29.2675745618      -28.4727421681  IONS      64              1.0000000000
     38395      6763  POT       POT            20.7691880582      -27.4057724252      -33.7299633214  IONS      65              1.0000000000
     38396      6764  POT       POT            16.8322463220       10.5374197381      -30.1055372309  IONS      66              1.0000000000
     38397      6765  POT       POT           -18.3154254454      -18.3978470949      -42.5917253026  IONS      67              1.0000000000
     38398      6766  POT       POT             8.6674576173       -5.9971597223      -27.2429094929  IONS      68              1.0000000000
     38399      6767  POT       POT            -9.9601166275       25.5742582180      -31.8170953955  IONS      69              1.0000000000
     38400      6768  POT       POT            -1.1248021898       19.9777262630       23.3998240920  IONS      70              1.0000000000
     38401      6769  POT       POT           -21.5122230718      -15.3975677677       40.7709129844  IONS      71              1.0000000000
     38402      6770  POT       POT            17.1306305177      -32.8562772778       40.7393113280  IONS      72              1.0000000000
     38403      6771  POT       POT           -26.1214430022       -9.1351215575       32.3229819114  IONS      73              1.0000000000
     38404      6772  POT       POT             2.9032628364      -16.0811522348      -27.2636019664  IONS      74              1.0000000000
     38405      6773  POT       POT            23.2270003514       -6.9828874559       24.4925523581  IONS      75              1.0000000000
     38406      6774  POT       POT           -33.5125368913        6.5109774492      -36.9607094811  IONS      76              1.0000000000
     38407      6775  POT       POT            14.3079736391      -24.1160682784       29.5903900598  IONS      77              1.0000000000
     38408      6776  POT       POT           -20.5849010816      -33.0911810196      -26.2576674830  IONS      78              1.0000000000
     38409      6777  POT       POT           -27.8221350618      -15.8090904588       24.5591325245  IONS      79              1.0000000000
     38410      6778  POT       POT           -25.8015756652      -15.2547512016      -41.9239891381  IONS      80              1.0000000000
     38411      6779  POT       POT            28.3111960082        6.7167942154      -31.8602225477  IONS      81              1.0000000000
     38412      6780  POT       POT            24.8300382838       10.1906521629      -31.8164300454  IONS      82              1.0000000000
     38413      6781  POT       POT           -34.8994555600       26.0324628083      -29.9485443408  IONS      83              1.0000000000
     38414      6782  POT       POT            26.1738252193      -25.8994972338       36.9331030910  IONS      84              1.0000000000
     38415      6783  POT       POT            21.8295261777       -5.4492795267       39.9172888741  IONS      85              1.0000000000
     38416      6784  POT       POT           -28.3725497507       28.5007129640       41.7410718905  IONS      86              1.0000000000
     38417      6785  POT       POT            -8.6252240518      -14.0194270719       40.6894502347  IONS      87              1.0000000000
     38418      6786  POT       POT             8.3982286123      -19.8192239477       31.2582333790  IONS      88              1.0000000000
     38419      6787  POT       POT            13.2331522535      -11.5911437897      -35.5465364513  IONS      89              1.0000000000
     38420      6788  POT       POT            19.6406480356       -2.5542366212      -34.1308169621  IONS      90              1.0000000000
     38421      6789  POT       POT            -5.1313380224       11.8655712351       35.4408985680  IONS      91              1.0000000000
     38422      6790  POT       POT           -22.7656289952       31.3150259984      -29.8397028395  IONS      92              1.0000000000
     38423      6791  POT       POT             3.5833644520      -14.6535169588      -35.2466221483  IONS      93              1.0000000000
     38424      6792  POT       POT            20.3175923762       -0.7312796230       32.1058603613  IONS      94              1.0000000000
     38425      6793  POT       POT           -24.9385715772      -18.0585592597      -28.3463573935  IONS      95              1.0000000000
     38426      6794  POT       POT           -31.0575282006      -25.3212424488      -41.6141589724  IONS      96              1.0000000000
     38427      6795  POT       POT            27.8722936551       31.7489502028       34.6701219775  IONS      97              1.0000000000
     38428      6796  POT       POT            20.4351423416       29.1517693637       34.6673072855  IONS      98              1.0000000000
     38429      6797  POT       POT            -1.4934313573       10.8642361796      -30.6534051969  IONS      99              1.0000000000
     38430      6798  POT       POT             3.7035963385       10.3187157020      -30.0409431915  IONS      100             1.0000000000
     38431      6799  POT       POT            -9.1371747106      -28.2045520674      -23.9246826236  IONS      101             1.0000000000
     38432      6800  POT       POT             0.6391929558       16.4539129952       29.9800109777  IONS      102             1.0000000000
     38433      6801  POT       POT             4.7058469423       26.9091819932      -31.2612567271  IONS      103             1.0000000000
     38434      6802  POT       POT            28.0818528457       -6.1300578983      -27.6360733090  IONS      104             1.0000000000
     38435      6803  POT       POT             9.5428828256       24.0697155595       36.6320702176  IONS      105             1.0000000000
     38436      6804  POT       POT            29.9936583362      -31.8301127685      -32.6505174653  IONS      106             1.0000000000
     38437      6805  POT       POT            23.4206040945      -32.2384114105      -26.3930701610  IONS      107             1.0000000000
     38438      6806  POT       POT            -4.7273969582      -19.8657944647      -29.2785269992  IONS      108             1.0000000000
     38439      6807  POT       POT            -1.9934290625       26.1341143190      -42.1672648902  IONS      109             1.0000000000
     38440      6808  POT       POT             9.6803789739      -12.5324874759       25.8206446095  IONS      110             1.0000000000
     38441      6809  POT       POT            20.5253817165        1.3647601321      -25.4790276943  IONS      111             1.0000000000
     38442      6810  POT       POT           -23.9658280058       -9.8504264423       41.5713769929  IONS      112             1.0000000000
     38443      6811  POT       POT            30.9985401098       11.4138791180       26.5324374665  IONS      113             1.0000000000
     38444      6812  POT       POT            20.1937669985      -24.5080664259       33.9074696130  IONS      114             1.0000000000
     38445      6813  POT       POT            26.9963723750       17.8480937290       30.5236525407  IONS      115             1.0000000000
     38446      6814  POT       POT            20.1371016988        0.9597168608       38.5759086095  IONS      116             1.0000000000
     38447      6815  POT       POT            11.4754605539       31.9781337995       27.4672575139  IONS      117             1.0000000000
     38448      6816  POT       POT            10.6080371372       -1.3100481526      -37.3438217726  IONS      118             1.0000000000
     38449      6817  POT       POT            31.3749446783       -7.0875298159       27.2019266480  IONS      119             1.0000000000
     38450      6818  POT       POT           -25.3846333179       22.7465397005      -39.0816087961  IONS      120             1.0000000000
     38451      6819  POT       POT           -15.6931136900      -15.7680662958       34.7874985104  IONS      121             1.0000000000
     38452      6820  POT       POT             0.3938982288       15.0754766723      -40.5038067331  IONS      122             1.0000000000
     38453      6821  POT       POT            31.0462100011       13.0600877724       32.8465127557  IONS      123             1.0000000000
     38454      6822  POT       POT             6.6417519684      -34.6184418859      -26.7650408691  IONS      124             1.0000000000
     38455      6823  POT       POT            32.7026289409      -34.3663097885      -38.3177244023  IONS      125             1.0000000000
     38456      6824  POT       POT            23.7694856075       -9.1388281671      -31.6002037752  IONS      126             1.0000000000
     38457      6825  POT       POT           -19.4244010776       14.4819920147       37.2284604296  IONS      127             1.0000000000
     38458      6826  POT       POT           -15.3508329831       15.1632963267      -23.5807155459  IONS      128             1.0000000000
     38459      6827  POT       POT            16.6555890581       33.9120339744      -36.7063398718  IONS      129             1.0000000000
     38460      6828  POT       POT           -31.2111883666      -34.5192971466      -38.0770001428  IONS      130             1.0000000000
     38461      6829  POT       POT           -14.4623062428      -25.5374939756       25.3286251322  IONS      131             1.0000000000
     38462      6830  POT       POT            17.4808717244      -32.0016899099      -25.5297694196  IONS      132             1.0000000000
     38463      6831  POT       POT             8.9332831601        1.2167317050       35.5675599305  IONS      133             1.0000000000
     38464      6832  POT       POT           -17.0374307207      -28.0983756317      -27.6630439287  IONS      134             1.0000000000
     38465      6833  POT       POT            21.2061634050        2.4087638904      -29.7303756417  IONS      135             1.0000000000
     38466      6834  POT       POT           -27.6670587119       -0.4121438485       39.4574764471  IONS      136             1.0000000000
     38467      6835  POT       POT            -1.4174639393       33.9874608577       31.2680893040  IONS      137             1.0000000000
     38468      6836  POT       POT            34.0633806406       -6.2085631660      -27.8639778759  IONS      138             1.0000000000
     38469      6837  POT       POT            12.4223681798      -22.6964514342       37.4230383382  IONS      139             1.0000000000
     38470      6838  POT       POT             7.2802994354      -11.5017717706      -37.1609126332  IONS      140             1.0000000000
     38471      6839  POT       POT           -21.3125109930       19.3675365961       29.1641278119  IONS      141             1.0000000000
     38472      6840  POT       POT            -9.2354667224        4.6467777147      -36.9777289173  IONS      142             1.0000000000
     38473      6841  POT       POT           -30.4095508195       22.0850852283      -37.2738460117  IONS      143             1.0000000000
     38474      6842  POT       POT             4.5303671565      -21.0397721839       35.7843577128  IONS      144             1.0000000000
     38475      6843  POT       POT             7.4852739750      -30.5332215524       33.8304503369  IONS      145             1.0000000000
     38476      6844  POT       POT            -4.8884240619       16.7526802811      -33.9012864414  IONS      146             1.0000000000
     38477      6845  POT       POT           -12.7814966091       20.6855330605       36.6819179986  IONS      147             1.0000000000
     38478      6846  POT       POT           -14.4895036125       -9.9714448669       35.5022091518  IONS      148             1.0000000000
     38479      6847  POT       POT             4.2231249017        5.0878478230      -29.7876825535  IONS      149             1.0000000000
     38480      6848  POT       POT           -16.8454140805       22.8302824973      -32.7452777981  IONS      150             1.0000000000
     38481      6849  POT       POT            18.3119701822       33.1950477084       40.5799891225  IONS      151             1.0000000000
     38482      6850  POT       POT            34.1127944464      -16.4077037103       31.1953611431  IONS      152             1.0000000000
     38483      6851  POT       POT            13.7303185914      -30.2827760828      -24.0575820250  IONS      153             1.0000000000
     38484      6852  POT       POT           -27.2135014729      -27.3008394533       25.4970092883  IONS      154             1.0000000000
     38485      6853  POT       POT            23.3288371271      -19.5035231908       34.9855004749  IONS      155             1.0000000000
     38486      6854  POT       POT            17.4271051399       18.9567074828       24.5170934899  IONS      156             1.0000000000
     38487      6855  POT       POT            -5.3137722471      -14.1925080186      -39.3812498599  IONS      157             1.0000000000
     38488      6856  POT       POT            12.7551542617        4.5936719060      -39.9783903188  IONS      158             1.0000000000
     38489      6857  POT       POT            -1.3459265924       20.4198904515       42.1578117805  IONS      159             1.0000000000
     38490      6858  POT       POT           -34.1696477761      -18.9218315212       24.9820952305  IONS      160             1.0000000000
     38491      6859  POT       POT            -8.1409737127       13.7538315464       40.2650234007  IONS      161             1.0000000000
     38492      6860  POT       POT            25.2845777769        6.9694940708      -42.6419314219  IONS      162             1.0000000000
     38493      6861  POT       POT            25.9535071445       -8.7133128214       29.1966926919  IONS      163             1.0000000000
     38494      6862  POT       POT            11.0695943915       11.6672616294      -32.1582908457  IONS      164             1.0000000000
     38495      6863  POT       POT             2.7255801904       28.9700189635      -23.3966017877  IONS      165             1.0000000000
     38496      6864  POT       POT           -25.0576367795       24.9753752609      -22.8947065674  IONS      166             1.0000000000
     38497      6865  POT       POT            23.8410036978       -4.6032427007       18.6723312260  IONS      167             1.0000000000
     38498      6866  POT       POT             2.6487324443      -13.4082358460       38.5925626752  IONS      168             1.0000000000
     38499      6867  POT       POT           -19.6791034587       32.6974527752      -24.8159607034  IONS      169             1.0000000000
     38500      6868  POT       POT             4.3578597806      -10.7991526417      -30.7121649715  IONS      170             1.0000000000
     38501      6869  POT       POT           -23.6540964394       24.8267606256       42.1478020158  IONS      171             1.0000000000
     38502      6870  POT       POT            24.2472625507       -8.7969973376      -37.5718777710  IONS      172             1.0000000000
     38503      6871  POT       POT            11.6961521036       19.4780047914      -35.1214510139  IONS      173             1.0000000000
     38504      6872  POT       POT           -14.9421663093       18.0120136568       42.6862549049  IONS      174             1.0000000000
     38505      6873  POT       POT            10.9142090082       32.1437184993       39.5286208282  IONS      175             1.0000000000
     38506      6874  POT       POT            -8.7745917017       18.7743509271       37.0927200019  IONS      176             1.0000000000
     38507      6875  POT       POT           -23.3451186472       -3.8776934035      -25.9573317097  IONS      177             1.0000000000
     38508      6876  POT       POT             9.5453631510       23.4347988006       27.6020265819  IONS      178             1.0000000000
     38509      6877  POT       POT            29.5713120990      -28.1724986723      -26.6323856925  IONS      179             1.0000000000
     38510      6878  POT       POT            30.4822536097       -2.3432932090       36.4941027385  IONS      180             1.0000000000
     38511      6879  POT       POT            23.9526339793        9.7521955054       35.4224380572  IONS      181             1.0000000000
     38512      6880  POT       POT            -9.2053424401      -32.6095064021      -37.4668793973  IONS      182             1.0000000000
     38513      6881  POT       POT            -8.3584142548      -27.4858712854       31.4445010864  IONS      183             1.0000000000
     38514      6882  POT       POT            22.7980523408      -11.3738961078       32.4110325470  IONS      184             1.0000000000
     38515      6883  POT       POT            34.5568386023      -24.7504875038       25.1365763125  IONS      185             1.0000000000
     38516      6884  POT       POT            27.4327569228       -4.4522797789       23.4934906797  IONS      186             1.0000000000
     38517      6885  POT       POT            30.4669480553        0.6364626833       27.6397369595  IONS      187             1.0000000000
     38518      6886  POT       POT            -4.0521159454       -1.9400219722      -18.9837029288  IONS      188             1.0000000000
     38519      6887  POT       POT            -3.7490745672      -20.8520147284       42.3461496846  IONS      189             1.0000000000
     38520      6888  POT       POT             5.5294881050       25.3652577558       28.1163493755  IONS      190             1.0000000000
     38521      6889  POT       POT           -17.5462887592      -34.9956850074       25.3838970881  IONS      191             1.0000000000
     38522      6890  POT       POT             7.3348290821      -18.8623861793       42.2626137908  IONS      192             1.0000000000
     38523      6891  POT       POT           -26.3747277273      -25.5113074486      -32.7252983018  IONS      193             1.0000000000
     38524      6892  POT       POT            16.8894168646      -12.1374271683       31.7084487715  IONS      194             1.0000000000
     38525      6893  POT       POT           -34.1813509479      -12.2239359901       38.8479153598  IONS      195             1.0000000000
     38526      6894  POT       POT             5.0561139671       -2.0658553301      -20.1058959864  IONS      196             1.0000000000
     38527      6895  POT       POT            28.5682014996       -3.0887622134       31.9756922974  IONS      197             1.0000000000
     38528      6896  POT       POT            19.9662291918       30.4550608566      -33.6970996751  IONS      198             1.0000000000
     38529      6897  POT       POT           -33.4143646863       22.4319457123      -24.9766468839  IONS      199             1.0000000000
     38530      6898  POT       POT            11.6221902922      -27.3916509753       26.0323106236  IONS      200             1.0000000000
     38531      6899  POT       POT             3.6383664347        3.7837261423       25.6734611321  IONS      201             1.0000000000
     38532      6900  POT       POT            -1.0333495307       -6.1140498115      -28.4373736404  IONS      202             1.0000000000
     38533      6901  POT       POT            11.0231671910       -1.7126664447       27.8137477443  IONS      203             1.0000000000
     38534      6902  POT       POT           -14.3884406865        3.9433235893       38.7233430148  IONS      204             1.0000000000
     38535      6903  POT       POT             1.3111351360       27.3515418180      -35.3070376458  IONS      205             1.0000000000
     38536      6904  POT       POT           -31.5434608653        9.7756439765      -39.8671772429  IONS      206             1.0000000000
     38537      6905  POT       POT            -1.7767537431       26.1582969621       32.2626740577  IONS      207             1.0000000000
     38538      6906  POT       POT            19.9324954550       13.1051573602       34.3070139890  IONS      208             1.0000000000
     38539      6907  POT       POT            19.8089306274       22.1395105510       31.4544434353  IONS      209             1.0000000000
     38540      6908  POT       POT             4.0413847197       25.3655105751       38.9487907854  IONS      210             1.0000000000
     38541      6909  POT       POT            22.8409699252      -33.1641642136      -17.6032008039  IONS      211             1.0000000000
     38542      6910  POT       POT            27.3947869626        1.6596669694      -33.9974096216  IONS      212             1.0000000000
     38543      6911  POT       POT             2.3870841890      -33.9553234461       29.6736012153  IONS      213             1.0000000000
     38544      6912  POT       POT           -16.2384517216      -21.2003369549       33.5741271995  IONS      214             1.0000000000
     38545      6913  POT       POT             7.8729763706       20.0340055076       24.0385310579  IONS      215             1.0000000000
     38546      6914  POT       POT            17.0404356206        6.8164490545      -30.7430069206  IONS      216             1.0000000000
     38547      6915  POT       POT            31.8437092044      -13.3860623103      -14.9695715335  IONS      217             1.0000000000
     38548      6916  POT       POT            16.0137933437       32.7263537550      -24.3410472572  IONS      218             1.0000000000
     38549      6917  POT       POT           -22.3974588721       -3.8113780521      -32.3046780377  IONS      219             1.0000000000
     38550      6918  POT       POT           -16.9814087006       17.8914366956      -31.1378904613  IONS      220             1.0000000000
     38551      6919  POT       POT           -33.4091893054       22.9555573127       34.1370321297  IONS      221             1.0000000000
     38552      6920  POT       POT           -34.4772606168        3.3037942441      -31.9969391088  IONS      222             1.0000000000
     38553      6921  POT       POT            22.9197519602       31.8861045245      -26.6684060958  IONS      223             1.0000000000
     38554      6922  POT       POT             5.0023771787      -34.7638095285       39.0302413531  IONS      224             1.0000000000
     38555      6923  POT       POT            15.9219693628      -24.9475846442      -29.7845723226  IONS      225             1.0000000000
     38556      6924  CLA       CLA            28.3334186759       31.2799095030       28.6370774579  IONS      226            -1.0000000000
     38557      6925  CLA       CLA           -26.0435333361      -24.1946566820       40.3474636399  IONS      227            -1.0000000000
     38558      6926  CLA       CLA            20.2817005474      -11.7138298638      -37.3081699429  IONS      228            -1.0000000000
     38559      6927  CLA       CLA             3.8183763182       24.2648758306      -41.1665846180  IONS      229            -1.0000000000
     38560      6928  CLA       CLA            24.5620775858       -1.7350809932       29.3784889085  IONS      230            -1.0000000000
     38561      6929  CLA       CLA            21.4067584447      -27.4407843148      -40.9035323009  IONS      231            -1.0000000000
     38562      6930  CLA       CLA            13.9939822305       22.7946960639       41.3385485098  IONS      232            -1.0000000000
     38563      6931  CLA       CLA           -14.4151061673       -5.0627168596       29.0681472450  IONS      233            -1.0000000000
     38564      6932  CLA       CLA           -26.3594578107      -26.8993989053       30.9809440001  IONS      234            -1.0000000000
     38565      6933  CLA       CLA            -2.4614218759       -1.9094510088       18.8941981708  IONS      235            -1.0000000000
     38566      6934  CLA       CLA            27.1784954073       24.2134310558       37.0109114246  IONS      236            -1.0000000000
     38567      6935  CLA       CLA           -12.6733009361      -18.0621243795       35.0326015943  IONS      237            -1.0000000000
     38568      6936  CLA       CLA            12.6808719747      -21.2354599983      -25.3151248508  IONS      238            -1.0000000000
     38569      6937  CLA       CLA            29.9894247003        9.6736160173      -24.2416482151  IONS      239            -1.0000000000
     38570      6938  CLA       CLA            25.0702569755       34.5429908717       36.7160189656  IONS      240            -1.0000000000
     38571      6939  CLA       CLA            28.3241707217      -17.1408984712      -24.3997729747  IONS      241            -1.0000000000
     38572      6940  CLA       CLA           -29.9208479695      -27.7208655898       29.3196319555  IONS      242            -1.0000000000
     38573      6941  CLA       CLA           -13.3591934660       14.1226015383       32.6215886778  IONS      243            -1.0000000000
     38574      6942  CLA       CLA           -26.9288426860        6.8311885501       34.5221245377  IONS      244            -1.0000000000
     38575      6943  CLA       CLA             0.9212911023       31.9909220450       34.6858228489  IONS      245            -1.0000000000
     38576      6944  CLA       CLA            -6.8235903272       33.2098022515       33.3480948500  IONS      246            -1.0000000000
     38577      6945  CLA       CLA           -21.6167464405       17.2791135872      -40.2548917556  IONS      247            -1.0000000000
     38578      6946  CLA       CLA            -5.3732286552      -33.5263828890       23.2121079502  IONS      248            -1.0000000000
     38579      6947  CLA       CLA           -15.8452844791       25.9288326976       25.6413325307  IONS      249            -1.0000000000
     38580      6948  CLA       CLA             1.9329593831        4.0268967500       42.3620847766  IONS      250            -1.0000000000
     38581      6949  CLA       CLA           -26.7166080383       -8.5869721183       25.0564341698  IONS      251            -1.0000000000
     38582      6950  CLA       CLA           -18.1839106137      -12.2692935594      -32.8675053827  IONS      252            -1.0000000000
     38583      6951  CLA       CLA           -28.3033240066        8.0828837974      -32.7310254858  IONS      253            -1.0000000000
     38584      6952  CLA       CLA           -30.1664234257       -6.1318936749       34.8897492310  IONS      254            -1.0000000000
     38585      6953  CLA       CLA           -33.1085249777       21.3570488857       27.5488556663  IONS      255            -1.0000000000
     38586      6954  CLA       CLA           -26.3615944337       -9.7477661834       37.7943524078  IONS      256            -1.0000000000
     38587      6955  CLA       CLA            30.0921575485       20.0899885954      -23.3952345947  IONS      257            -1.0000000000
     38588      6956  CLA       CLA            28.0791355635      -10.8274198254       42.1760441764  IONS      258            -1.0000000000
     38589      6957  CLA       CLA            -7.6832067339       -8.7223972527      -35.7936655236  IONS      259            -1.0000000000
     38590      6958  CLA       CLA           -27.4619128780       31.7049426381      -33.5634904869  IONS      260            -1.0000000000
     38591      6959  CLA       CLA           -33.1034420660        0.9905152098       33.1523675174  IONS      261            -1.0000000000
     38592      6960  CLA       CLA            25.5820974823       26.0834883561      -38.1915478622  IONS      262            -1.0000000000
     38593      6961  CLA       CLA            32.3436583662       34.4020637398      -33.8376712618  IONS      263            -1.0000000000
     38594      6962  CLA       CLA            23.7857396200        3.1723151411       39.3249880294  IONS      264            -1.0000000000
     38595      6963  CLA       CLA            -6.6154540517       -3.4738990410      -33.6376568644  IONS      265            -1.0000000000
     38596      6964  CLA       CLA           -23.9011556843        7.1094672454       25.1539616747  IONS      266            -1.0000000000
     38597      6965  CLA       CLA            27.1546289959        1.3786076904      -27.8438480125  IONS      267            -1.0000000000
     38598      6966  CLA       CLA           -19.2415832176       16.5187197697       28.9712041689  IONS      268            -1.0000000000
     38599      6967  CLA       CLA             1.7759705384       19.7442203332       38.3349169786  IONS      269            -1.0000000000
     38600      6968  CLA       CLA           -12.4441805566       32.2990862069       31.4496372695  IONS      270            -1.0000000000
     38601      6969  CLA       CLA            33.9260669851       22.3200308932      -38.8774094198  IONS      271            -1.0000000000
     38602      6970  CLA       CLA            -1.2306369067       19.2498171364       32.9986023584  IONS      272            -1.0000000000
     38603      6971  CLA       CLA             7.8168348236      -18.7709628873      -39.7137617571  IONS      273            -1.0000000000
     38604      6972  CLA       CLA            31.7074486499       17.0855068958      -31.6609198704  IONS      274            -1.0000000000
     38605      6973  CLA       CLA            11.9577635398       31.6969343092      -20.0831447673  IONS      275            -1.0000000000
     38606      6974  CLA       CLA            13.3183243641       34.3815357997       27.8400314497  IONS      276            -1.0000000000
     38607      6975  CLA       CLA            21.3543254263      -11.0976648650       39.3644618424  IONS      277            -1.0000000000
     38608      6976  CLA       CLA           -34.5851172901      -19.0136897604       35.2341176441  IONS      278            -1.0000000000
     38609      6977  CLA       CLA           -34.9010329856       19.8264736981       34.4430738566  IONS      279            -1.0000000000
     38610      6978  CLA       CLA            -3.5656584266       18.4995496271      -24.0107769737  IONS      280            -1.0000000000
     38611      6979  CLA       CLA            20.1861534057      -26.3552984507       28.8688830523  IONS      281            -1.0000000000
     38612      6980  CLA       CLA            18.2312130024      -26.7759319799       23.0169896194  IONS      282            -1.0000000000
     38613      6981  CLA       CLA            15.1441885659      -16.2096456249       30.9998135160  IONS      283            -1.0000000000
     38614      6982  CLA       CLA            27.8379224042       14.1209205742      -32.6780127321  IONS      284            -1.0000000000
     38615      6983  CLA       CLA           -19.2804576239       20.4274740945      -42.2862151105  IONS      285            -1.0000000000
     38616      6984  CLA       CLA            14.1197655396       15.3739690640      -41.6122127151  IONS      286            -1.0000000000
     38617      6985  CLA       CLA           -12.2710290569       16.4404602344      -38.3997492858  IONS      287            -1.0000000000
     38618      6986  CLA       CLA            26.3018837467       30.8762748094      -31.1974831026  IONS      288            -1.0000000000
     38619      6987  CLA       CLA            32.1209501580       12.2342439369       42.6759561976  IONS      289            -1.0000000000
     38620      6988  CLA       CLA           -26.2619951420        1.3964860430       25.9711396741  IONS      290            -1.0000000000
     38621      6989  CLA       CLA           -11.6443606903       31.7313436339      -29.7249625128  IONS      291            -1.0000000000
     38622      6990  CLA       CLA             1.9653633312      -22.2917240119      -29.8705776793  IONS      292            -1.0000000000
     38623      6991  CLA       CLA           -29.4163943974        5.4492178564      -25.2094928337  IONS      293            -1.0000000000
     38624      6992  CLA       CLA            21.3017162666       14.2476225549       27.1101308046  IONS      294            -1.0000000000
     38625      6993  CLA       CLA            -8.2562472730       23.7831112638       42.0573934856  IONS      295            -1.0000000000
     38626      6994  CLA       CLA            32.7437232837       25.6829413702      -34.4254363201  IONS      296            -1.0000000000
     38627      6995  CLA       CLA           -12.4589699574      -19.5362427201       40.0770023168  IONS      297            -1.0000000000
     38628      6996  CLA       CLA           -30.1161879405       -1.5129408042       30.8301043521  IONS      298            -1.0000000000
     38629      6997  CLA       CLA             6.1312460019      -27.6509914805      -26.7157982513  IONS      299            -1.0000000000
     38630      6998  CLA       CLA            25.4135643166      -13.7017861318       23.3005575182  IONS      300            -1.0000000000
     38631      6999  CLA       CLA           -17.9635555798       -7.6995467331      -42.1898899536  IONS      301            -1.0000000000
     38632      7000  CLA       CLA            12.5945626665       25.3127697976       23.9852187746  IONS      302            -1.0000000000
     38633      7001  CLA       CLA            -5.7454059323        2.0743302310      -34.6791629614  IONS      303            -1.0000000000
     38634      7002  CLA       CLA             1.3321170079       12.1649228297       34.6725202643  IONS      304            -1.0000000000
     38635      7003  CLA       CLA             4.4994344832       29.6385560636      -32.2131548070  IONS      305            -1.0000000000
     38636      7004  CLA       CLA           -32.3423870130       -8.0550588151       19.1400709821  IONS      306            -1.0000000000
     38637      7005  CLA       CLA            21.5236350943      -18.1753629767       23.8631088034  IONS      307            -1.0000000000
     38638      7006  CLA       CLA            22.7859683942       20.3076076843       32.8728543485  IONS      308            -1.0000000000
     38639      7007  CLA       CLA            30.7696752942       -6.1306802366       31.1996020774  IONS      309            -1.0000000000
     38640      7008  CLA       CLA             7.5075443810      -34.4012588131       28.1165523943  IONS      310            -1.0000000000
     38641      7009  CLA       CLA            -1.0663097670       34.4258601345      -36.7578698948  IONS      311            -1.0000000000
     38642      7010  CLA       CLA            31.7703127965        2.8438653378      -25.2542620906  IONS      312            -1.0000000000
     38643      7011  CLA       CLA            26.9792802644       21.0582118278       28.5705968821  IONS      313            -1.0000000000
     38644      7012  CLA       CLA            -3.3475310820       28.3352298231      -36.4525195716  IONS      314            -1.0000000000
     38645      7013  CLA       CLA            10.2842644002        4.9141623713       28.5219963744  IONS      315            -1.0000000000
     38646      7014  CLA       CLA             2.2517612900       -8.1844617852       38.7447987181  IONS      316            -1.0000000000
     38647      7015  CLA       CLA           -29.2116299557      -14.8105061525       35.3549324990  IONS      317            -1.0000000000
     38648      7016  CLA       CLA           -13.4247024730      -27.4680818151       42.0849016316  IONS      318            -1.0000000000
     38649      7017  CLA       CLA            -0.5242311736      -22.8591677479       42.1829958586  IONS      319            -1.0000000000
     38650      7018  CLA       CLA            -3.6123067183      -19.9348534526       24.4288749211  IONS      320            -1.0000000000
     38651      7019  CLA       CLA             5.0432233441        2.1067617446       38.4263481182  IONS      321            -1.0000000000
     38652      7020  CLA       CLA           -11.0448267308       24.9412097718       35.3522697317  IONS      322            -1.0000000000
     38653      7021  CLA       CLA            13.9149916647       25.7039944694      -33.6647820469  IONS      323            -1.0000000000
     38654      7022  CLA       CLA             5.7931765107       32.5300239547      -29.2004525348  IONS      324            -1.0000000000
     38655      7023  CLA       CLA            27.7034609883       11.5901930702       32.9483382770  IONS      325            -1.0000000000
     38656      7024  CLA       CLA           -20.3344000476      -33.1824939844      -40.0788225625  IONS      326            -1.0000000000
     38657      7025  CLA       CLA           -19.8130913012       33.0877278891       40.5931148504  IONS      327            -1.0000000000
     38658      7026  CLA       CLA           -23.2524183863       32.2823432528      -39.5661491249  IONS      328            -1.0000000000
     38659      7027  CLA       CLA             5.7811862636       14.7272921670       31.4726989565  IONS      329            -1.0000000000
     38660      7028  CLA       CLA             7.4578735887      -24.0936384660      -31.4802590560  IONS      330            -1.0000000000
     38661      7029  CLA       CLA           -16.2882819886      -10.7399636487       28.1341346099  IONS      331            -1.0000000000
     38662      7030  CLA       CLA            16.2133035813        7.5157460268       32.9299239391  IONS      332            -1.0000000000
     38663      7031  CLA       CLA            -1.8628671728      -30.4635752558      -25.0737534867  IONS      333            -1.0000000000
     38664      7032  CLA       CLA           -32.9183245404      -23.8285506513       25.9248346021  IONS      334            -1.0000000000
     38665      7033  CLA       CLA            33.5500846415      -15.1801004678      -31.1864944156  IONS      335            -1.0000000000
     38666      7034  CLA       CLA             5.5216152685      -21.2152545603       28.4828958450  IONS      336            -1.0000000000
     38667      7035  CLA       CLA           -23.6609983404        6.4617461248       42.2544784788  IONS      337            -1.0000000000
     38668      7036  CLA       CLA           -25.5005652376      -11.0228249354      -38.8920351383  IONS      338            -1.0000000000
     38669      7037  CLA       CLA            13.0831422931      -14.3722762562      -26.1747140165  IONS      339            -1.0000000000
     38670      7038  CLA       CLA            32.7332088454        3.0950662553      -31.4070799040  IONS      340            -1.0000000000
     38671      7039  CLA       CLA           -23.2719052147      -16.4526610125      -36.1021954996  IONS      341            -1.0000000000
     38672      7040  CLA       CLA           -23.5218633837       27.8569530365       34.7505589410  IONS      342            -1.0000000000
     38673      7041  CLA       CLA           -30.0387155407       30.4377957987      -25.4139342479  IONS      343            -1.0000000000
     38674      7042  CLA       CLA            33.3825793005      -25.5711434142      -28.4619110098  IONS      344            -1.0000000000
     38675      7043  CLA       CLA           -15.5065345408       11.7900195570       36.6643001636  IONS      345            -1.0000000000
     38676      7044  CLA       CLA            -8.1273666537       13.0525471550      -31.8644184330  IONS      346            -1.0000000000
     38677      7045  CLA       CLA           -22.2354896007       22.3374623011       33.9756239704  IONS      347            -1.0000000000
     38678      7046  CLA       CLA            -8.4354722975       31.9441268418      -41.3709310136  IONS      348            -1.0000000000
     38679      7047  CLA       CLA            13.4403270221      -11.9441407561       39.4393961348  IONS      349            -1.0000000000
     38680      7048  CLA       CLA            34.3257924593      -34.1117832878      -40.9437866075  IONS      350            -1.0000000000
     38681      7049  CLA       CLA           -27.9020920110      -33.1299794736      -34.2903169276  IONS      351            -1.0000000000
     38682      7050  CLA       CLA           -30.5432212517      -19.7051858297      -31.2844756375  IONS      352            -1.0000000000
     38683      7051  CLA       CLA            -8.3796999069       10.2982119608       25.4856525276  IONS      353            -1.0000000000
     38684      7052  CLA       CLA            15.5207589424      -33.9836182053      -27.2994403529  IONS      354            -1.0000000000
     38685      7053  CLA       CLA           -32.1472244111       16.7221608225      -34.0618052806  IONS      355            -1.0000000000
     38686      7054  CLA       CLA             6.8690891930       16.4036043146      -38.2710397216  IONS      356            -1.0000000000
     38687      7055  CLA       CLA           -16.2133906826       18.2656001880      -37.8381900531  IONS      357            -1.0000000000
     38688      7056  CLA       CLA            -5.6972861752      -25.5365437227      -41.3161139940  IONS      358            -1.0000000000
     38689      7057  CLA       CLA             3.5484745615       -6.1009235777      -38.4195148802  IONS      359            -1.0000000000
     38690      7058  CLA       CLA           -25.9827327383       -5.2813599076       40.1046438692  IONS      360            -1.0000000000
     38691      7059  CLA       CLA            -7.6651259186      -28.7196646346       38.1356854633  IONS      361            -1.0000000000
     38692      7060  CLA       CLA             2.1101348692      -34.2110008814      -37.8212878348  IONS      362            -1.0000000000
     38693      7061  CLA       CLA            -6.9828361521       16.0659239690      -38.0410225401  IONS      363            -1.0000000000
     38694      7062  CLA       CLA            13.4571285279       18.0055356497      -28.8105329363  IONS      364            -1.0000000000
     38695      7063  CLA       CLA            -2.6316655061       -4.8245008535      -19.0221191888  IONS      365            -1.0000000000
     38696      7064  CLA       CLA           -14.6128725630       17.2466449826       27.5349992965  IONS      366            -1.0000000000
     38697      7065  CLA       CLA            17.1980426631      -14.3349976248      -41.1343286484  IONS      367            -1.0000000000
     38698      7066  CLA       CLA             0.4237585562      -13.7541219450       30.1095945266  IONS      368            -1.0000000000
     38699      7067  CLA       CLA             7.0023170091      -20.1391217936      -23.0848965165  IONS      369            -1.0000000000
     38700      7068  CLA       CLA            11.0285252929       -3.6913362398       31.8756950385  IONS      370            -1.0000000000
     38701      7069  CLA       CLA            19.7928827068       27.7658138533       27.9477582423  IONS      371            -1.0000000000
     38702      7070  CLA       CLA           -21.2989306428      -20.6564983667       33.6306271997  IONS      372            -1.0000000000
     38703      7071  CLA       CLA           -25.6896817698       -2.4289849138      -29.9026836190  IONS      373            -1.0000000000
     38704      7072  CLA       CLA           -28.3361945650        5.1396206910      -36.2968317550  IONS      374            -1.0000000000
     38705      7073  CLA       CLA            -9.0344884271      -13.9577897757      -35.0574424651  IONS      375            -1.0000000000
     38706      7074  CLA       CLA           -15.9693136048      -11.9345129973      -22.8342343654  IONS      376            -1.0000000000
     38707      7075  CLA       CLA           -34.0721539758       -3.0453475960       37.3835075403  IONS      377            -1.0000000000
     38708      7076  CLA       CLA            28.6201424504        0.0026430828       35.8460782831  IONS      378            -1.0000000000
     38709      7077  CLA       CLA             6.8368999109       11.3958222794      -41.5822947476  IONS      379            -1.0000000000
     38710      7078  CLA       CLA           -33.2221822659        6.8781266236       19.7548417108  IONS      380            -1.0000000000
     38711      7079  CLA       CLA           -33.4595122113        0.3739115902       42.4397347228  IONS      381            -1.0000000000
     38712      7080  CLA       CLA           -28.0800393218       24.0657272916       25.8115806101  IONS      382            -1.0000000000
     38713      7081  CLA       CLA           -34.5511436834       33.3958699452       41.1201223249  IONS      383            -1.0000000000
     38714      7082  CLA       CLA           -28.3378559240       16.7671567356      -30.9297620604  IONS      384            -1.0000000000
     38715      7083  CLA       CLA           -21.2635257745      -23.8120911030       30.4308023395  IONS      385            -1.0000000000
     38716      7084  CLA       CLA            26.6174404632      -21.9008963817      -34.0695778862  IONS      386            -1.0000000000
     38717      7085  CLA       CLA             2.6971201423      -28.2157678310       38.3713473934  IONS      387            -1.0000000000
     38718      7086  CLA       CLA           -11.8408436037      -33.2288939346      -27.0406778272  IONS      388            -1.0000000000
     38719      7087  CLA       CLA           -17.7943422323      -18.8724509281       28.5892412747  IONS      389            -1.0000000000
     38720      7088  CLA       CLA           -14.0615748201      -10.0139650117       32.6311581579  IONS      390            -1.0000000000
     38721      7089  CLA       CLA            -7.1550022765       18.6125153197       29.0248190422  IONS      391            -1.0000000000
     38722      7090  CLA       CLA            34.4574584970      -13.9134472504       26.4902417610  IONS      392            -1.0000000000
     38723      7091  CLA       CLA           -15.2857019977       -0.4681930908       32.0121246243  IONS      393            -1.0000000000
     38724      7092  CLA       CLA            31.8794383530        4.4374637841       39.4149179392  IONS      394            -1.0000000000
     38725      7093  CLA       CLA           -16.2950739898       34.8111449579      -27.9601084435  IONS      395            -1.0000000000
     38726      7094  CLA       CLA            29.0388833774       24.4884194765       26.3956709933  IONS      396            -1.0000000000
     38727      7095  CLA       CLA           -30.1521642952      -13.5259682281       28.4655918575  IONS      397            -1.0000000000
     38728      7096  CLA       CLA           -10.8045332452       13.3584541840      -26.3657253449  IONS      398            -1.0000000000
     38729      7097  CLA       CLA            24.0213656918      -12.0455651082      -31.7868350017  IONS      399            -1.0000000000
     38730      7098  CLA       CLA            -2.7900533998       33.5053510410      -29.5848819853  IONS      400            -1.0000000000
     38731      7099  CLA       CLA           -20.0004676951       -6.8428347540       28.5781890804  IONS      401            -1.0000000000
     38732      7100  CLA       CLA           -14.9528854926        3.7115748272       28.4135991723  IONS      402            -1.0000000000
     38733      7101  CLA       CLA            -2.8704328797        3.4987685680      -29.5451337916  IONS      403            -1.0000000000
     38734      7102  CLA       CLA            29.7942267782       23.3926643531       42.0480209436  IONS      404            -1.0000000000
     38735      7103  CLA       CLA             2.5465558891      -19.9013522416      -24.1781425336  IONS      405            -1.0000000000
     38736      7104  CLA       CLA            17.1074390920      -29.9863029787       38.1170756274  IONS      406            -1.0000000000
     38737      7105  CLA       CLA           -33.3228694027      -26.0980343100      -37.6492079682  IONS      407            -1.0000000000
     38738      7106  CLA       CLA            31.6620320547       27.7028695184      -39.9307315386  IONS      408            -1.0000000000
     38739      7107  CLA       CLA           -23.3469917661      -34.5187311624       23.2754912775  IONS      409            -1.0000000000
     38740      7108  CLA       CLA            -7.3872553417      -25.8594318494      -35.2488590312  IONS      410            -1.0000000000
     38741      7109  CLA       CLA           -23.3302424360       19.2661044302      -28.1796482146  IONS      411            -1.0000000000
     38742      7110  CLA       CLA           -30.0439590221      -19.6155588098       31.3803006322  IONS      412            -1.0000000000
     38743      7111  CLA       CLA           -18.6800286303        2.1808011872      -29.7521793473  IONS      413            -1.0000000000
     38744      7112  CLA       CLA            -4.6458940165       33.6497753436       18.8449926897  IONS      414            -1.0000000000
     38745      7113  CLA       CLA           -23.7941873831       -7.7015705576      -27.4405745090  IONS      415            -1.0000000000
     38746      7114  CLA       CLA           -29.6976907822       17.1440719667       30.4776645842  IONS      416            -1.0000000000
     38747      7115  CLA       CLA           -11.8624424527       29.0066727272      -33.8566441940  IONS      417            -1.0000000000
     38748      7116  CLA       CLA            12.1965463141        9.2632534230       23.4436616440  IONS      418            -1.0000000000
     38749      7117  CLA       CLA            26.2534473123      -25.5327622765      -24.2995148782  IONS      419            -1.0000000000
     38750      7118  CLA       CLA           -14.5026719114       25.5701814340       31.4129188908  IONS      420            -1.0000000000
     38751      7119  CLA       CLA            28.6076888383      -34.0787848983       31.2975576721  IONS      421            -1.0000000000
     38752      7120  CLA       CLA            21.2925933460      -21.2107367042       38.1051696460  IONS      422            -1.0000000000
     38753      7121  CLA       CLA           -17.6119670986       -9.1228152640      -27.2380780215  IONS      423            -1.0000000000
     38754      7122  CLA       CLA            34.7905537344       23.1457490661      -27.5085591817  IONS      424            -1.0000000000
     38755      7123  CLA       CLA           -24.8506578609       10.9194092495      -27.5609905002  IONS      425            -1.0000000000
     38756      7124  CLA       CLA           -18.9065895608      -26.9821285746      -23.2518335766  IONS      426            -1.0000000000
     38757      7125  CLA       CLA            33.8867111703       -9.2279116936       39.8179698274  IONS      427            -1.0000000000
     38758      7126  CLA       CLA           -22.6285147539       21.6921102566      -36.5448865169  IONS      428            -1.0000000000
     38759      7127  CLA       CLA            -0.8126821265       -3.8010536803       35.8561075024  IONS      429            -1.0000000000
     38760      7128  CLA       CLA            -3.0668929472      -23.4407307897      -30.9620508674  IONS      430            -1.0000000000
     38761      7129  CLA       CLA            -7.6087117357        5.8481826404      -26.5488018009  IONS      431            -1.0000000000
     38762      7130  CLA       CLA           -16.5766691520      -11.0236418488      -37.3908624603  IONS      432            -1.0000000000
     38763      7131  CLA       CLA           -11.5514521367       24.2135468833      -27.1445608716  IONS      433            -1.0000000000
     38764      7132  CLA       CLA            31.9611989752       14.1943860333       24.5257401057  IONS      434            -1.0000000000
     38765      7133  CLA       CLA            29.8775086380       -3.9070375531      -41.8543672386  IONS      435            -1.0000000000
     38766      7134  CLA       CLA             8.3025024004       12.0748434184      -25.7410692456  IONS      436            -1.0000000000
     38767      7135  CLA       CLA             1.9951721169       -4.3782562578      -24.7404704349  IONS      437            -1.0000000000
     38768      7136  CLA       CLA            11.3404673350       29.8569992867       31.2904422825  IONS      438            -1.0000000000
     38769      7137  CLA       CLA            -1.7448654206        4.0304809508       34.3926445032  IONS      439            -1.0000000000
     38770      7138  CLA       CLA           -35.5638120724      -25.5183309554       32.7309384831  IONS      440            -1.0000000000
     38771      7139  CLA       CLA           -31.4128133461       -8.4538320451      -32.8689699212  IONS      441            -1.0000000000
     38772      7140  CLA       CLA            29.9266738214      -16.4186399649       42.1927741905  IONS      442            -1.0000000000
     38773      7141  CLA       CLA            17.3065046257       19.3758945447      -38.4753692026  IONS      443            -1.0000000000
     38774      7142  CLA       CLA           -13.2020498188       23.9034513052      -17.8832810959  IONS      444            -1.0000000000
     38775      7143  CLA       CLA            14.9021894434       -5.2184881833      -40.2870384663  IONS      445            -1.0000000000
     38776      7144  CLA       CLA            19.3963576398       -5.5118020713       29.5121617870  IONS      446            -1.0000000000
     38777      7145  CLA       CLA           -30.8983125836       -0.1166447611      -39.1444121639  IONS      447            -1.0000000000
     38778      7146  CLA       CLA            25.6188234287       17.5542913247      -37.4091940650  IONS      448            -1.0000000000
     38779      7147  CLA       CLA            31.5959563845        8.0636972127       23.2647804235  IONS      449            -1.0000000000
     38780      7148  CLA       CLA            21.8336378686      -31.2492926358       39.3595901786  IONS      450            -1.0000000000
