* SET NWATER = 0
*  DATE:     7/ 7/26      9:11:45      CREATED BY USER: charmm-gui
*
       500  EXT
         1         1  GLY       N              -0.0817234283       -3.0878904763        1.7839306058  PROA      2               0.0000000000
         2         1  GLY       HT1            -0.5480946416       -3.7559213677        1.1375308691  PROA      2               0.0000000000
         3         1  GLY       HT2            -0.4618067928       -2.1325107687        1.6277696297  PROA      2               0.0000000000
         4         1  GLY       HT3            -0.2609438559       -3.3753015803        2.7672285747  PROA      2               0.0000000000
         5         1  GLY       CA              1.3572765717       -3.0878030879        1.5303601178  PROA      2               0.0000000000
         6         1  GLY       HA1             1.4953676477       -2.7595664578        0.5092736722  PROA      2               0.0000000000
         7         1  GLY       HA2             1.7302765717       -4.0759716505        1.7407380919  PROA      2               0.0000000000
         8         1  GLY       C               2.0932765717       -2.1609681073        2.4115036469  PROA      2               0.0000000000
         9         1  GLY       O               1.8802765717       -2.1648093863        3.6134363591  PROA      2               0.0000000000
        10         2  ALA       N               3.0142765717       -1.3634418797        1.8380327094  PROA      3               0.0000000000
        11         2  ALA       HN              3.2504649556       -1.4327108983        0.8692102229  PROA      3               0.0000000000
        12         2  ALA       CA              3.7262765717       -0.3528850094        2.5772761145  PROA      3               0.0000000000
        13         2  ALA       HA              3.3922765717       -0.4669861168        3.5690951188  PROA      3               0.0000000000
        14         2  ALA       CB              5.2572765717       -0.5097652629        2.4193882236  PROA      3               0.0000000000
        15         2  ALA       HB1             5.5682765717       -0.3828373273        1.3645734062  PROA      3               0.0000000000
        16         2  ALA       HB2             5.7882765717        0.2410154396        3.0507180397  PROA      3               0.0000000000
        17         2  ALA       HB3             5.5582765717       -1.5133402494        2.7741152264  PROA      3               0.0000000000
        18         2  ALA       C               3.3062765717        1.0353635288        2.1898190252  PROA      3               0.0000000000
        19         2  ALA       O               2.9222765717        1.2822775070        1.0558249832  PROA      3               0.0000000000
        20         3  LEU       N               3.3532765717        1.9837628593        3.1386750259  PROA      4               0.0000000000
        21         3  LEU       HN              3.6425123297        1.9113866937        4.0909926079  PROA      4               0.0000000000
        22         3  LEU       CA              2.9172765717        3.3419420989        2.7361900533  PROA      4               0.0000000000
        23         3  LEU       HA              2.5252765717        3.3699652130        1.7310827431  PROA      4               0.0000000000
        24         3  LEU       CB              4.0312765717        4.4445752105        2.8138187928  PROA      4               0.0000000000
        25         3  LEU       HB1             4.6810460751        4.1950924529        3.6842601728  PROA      4               0.0000000000
        26         3  LEU       HB2             4.5862765717        4.1936349564        3.7526467796  PROA      4               0.0000000000
        27         3  LEU       CG              3.6052765717        5.9402859022        2.9844368647  PROA      4               0.0000000000
        28         3  LEU       HG              2.7212765717        5.8711611501        3.6595507578  PROA      4               0.0000000000
        29         3  LEU       CD1             4.6672765717        6.7836062468        3.6807390955  PROA      4               0.0000000000
        30         3  LEU       HD11            5.2412765717        6.1382940743        4.3572870983  PROA      4               0.0000000000
        31         3  LEU       HD12            5.3552765717        7.2182386454        2.9260691821  PROA      4               0.0000000000
        32         3  LEU       HD13            4.2062765717        7.6181250775        4.2603685644  PROA      4               0.0000000000
        33         3  LEU       CD2             2.8132765717        6.8359210191        2.0045171040  PROA      4               0.0000000000
        34         3  LEU       HD21            1.8812765717        6.3295848782        1.6715475673  PROA      4               0.0000000000
        35         3  LEU       HD22            2.5312765717        7.8066516447        2.4778246705  PROA      4               0.0000000000
        36         3  LEU       HD23            3.4242765717        7.0434315571        1.1056748617  PROA      4               0.0000000000
        37         3  LEU       C               1.7572765717        3.7179314737        3.6080535690  PROA      4               0.0000000000
        38         3  LEU       O               1.8622765717        3.6086597323        4.8220452027  PROA      4               0.0000000000
        39         4  ALA       N               0.6492765717        4.2365372796        3.0001094778  PROA      5               0.0000000000
        40         4  ALA       HN              0.5027483105        4.3030039040        2.0135438101  PROA      5               0.0000000000
        41         4  ALA       CA             -0.4317234283        4.7458226541        3.8269821447  PROA      5               0.0000000000
        42         4  ALA       HA             -0.1957234283        4.4674224674        4.8347952901  PROA      5               0.0000000000
        43         4  ALA       CB             -0.6647234283        6.2620881355        3.6304115722  PROA      5               0.0000000000
        44         4  ALA       HB1            -0.8447234283        6.4768174034        2.5546939784  PROA      5               0.0000000000
        45         4  ALA       HB2            -1.5407234283        6.6069617232        4.2167145728  PROA      5               0.0000000000
        46         4  ALA       HB3             0.2222765717        6.8376041181        3.9637677687  PROA      5               0.0000000000
        47         4  ALA       C              -1.6717234283        3.9726754731        3.4757679131  PROA      5               0.0000000000
        48         4  ALA       O              -2.0827234283        3.9011582947        2.3159553018  PROA      5               0.0000000000
        49         5  VAL       N              -2.3367234283        3.3495018357        4.4535100149  PROA      6               0.0000000000
        50         5  VAL       HN             -2.0808185656        3.3209321050        5.4162706455  PROA      6               0.0000000000
        51         5  VAL       CA             -3.5617234283        2.6265822190        4.1340163094  PROA      6               0.0000000000
        52         5  VAL       HA             -3.4737234283        2.1740761523        3.1520110856  PROA      6               0.0000000000
        53         5  VAL       CB             -4.8707234283        3.4350029374        4.2182833973  PROA      6               0.0000000000
        54         5  VAL       HB             -5.0167234283        3.8420837417        5.2404077629  PROA      6               0.0000000000
        55         5  VAL       CG1            -4.8597234283        4.6231216957        3.2358497781  PROA      6               0.0000000000
        56         5  VAL       HG11           -4.6597234283        4.2554849276        2.2040730548  PROA      6               0.0000000000
        57         5  VAL       HG12           -5.8367234283        5.1441675037        3.2491262970  PROA      6               0.0000000000
        58         5  VAL       HG13           -4.0687234283        5.3515556481        3.5178922873  PROA      6               0.0000000000
        59         5  VAL       CG2            -6.0747234283        2.5447746835        3.8247841521  PROA      6               0.0000000000
        60         5  VAL       HG21           -5.8747234283        2.0090586650        2.8723948685  PROA      6               0.0000000000
        61         5  VAL       HG22           -6.2887234283        1.8045623142        4.6259393483  PROA      6               0.0000000000
        62         5  VAL       HG23           -6.9907234283        3.1626468297        3.6972890110  PROA      6               0.0000000000
        63         5  VAL       C              -3.6147234283        1.4783022759        5.0827176177  PROA      6               0.0000000000
        64         5  VAL       O              -3.6797234283        1.6962361409        6.2888676210  PROA      6               0.0000000000
        65         6  VAL       N              -3.5717234283        0.2331704975        4.5525856960  PROA      7               0.0000000000
        66         6  VAL       HN             -3.5630371929       -0.0157627505        3.5876150501  PROA      7               0.0000000000
        67         6  VAL       CA             -3.5327234283       -0.9003483568        5.4672266129  PROA      7               0.0000000000
        68         6  VAL       HA             -3.4437234283       -0.5067082006        6.4682003525  PROA      7               0.0000000000
        69         6  VAL       CB             -4.7727234283       -1.7886630400        5.3572310506  PROA      7               0.0000000000
        70         6  VAL       HB             -4.6057234283       -2.5625529867        4.5751067955  PROA      7               0.0000000000
        71         6  VAL       CG1            -5.0837234283       -2.4682446023        6.7055607210  PROA      7               0.0000000000
        72         6  VAL       HG11           -5.2697234283       -1.6891017016        7.4763092794  PROA      7               0.0000000000
        73         6  VAL       HG12           -5.9987234283       -3.0907460185        6.6138765523  PROA      7               0.0000000000
        74         6  VAL       HG13           -4.2467234283       -3.1052339385        7.0568292588  PROA      7               0.0000000000
        75         6  VAL       CG2            -5.9907234283       -0.9545310471        4.8965697667  PROA      7               0.0000000000
        76         6  VAL       HG21           -6.1467234283       -0.1034953118        5.5883473157  PROA      7               0.0000000000
        77         6  VAL       HG22           -5.8537234283       -0.5687742567        3.8605332332  PROA      7               0.0000000000
        78         6  VAL       HG23           -6.9147234283       -1.5699624077        4.9106495536  PROA      7               0.0000000000
        79         6  VAL       C              -2.2537234283       -1.6653664232        5.1926408191  PROA      7               0.0000000000
        80         6  VAL       O              -1.9337234283       -2.0391421724        4.0540356684  PROA      7               0.0000000000
        81         7  VAL       N              -1.3957234283       -1.9598003856        6.1854900734  PROA      8               0.0000000000
        82         7  VAL       HN             -1.4432608868       -1.4984342150        7.0675858770  PROA      8               0.0000000000
        83         7  VAL       CA             -0.3487234283       -2.9427701222        6.0838264281  PROA      8               0.0000000000
        84         7  VAL       HA              0.1062765717       -2.9079572791        5.1053255002  PROA      8               0.0000000000
        85         7  VAL       CB             -0.8507234283       -4.3598315107        6.4150801397  PROA      8               0.0000000000
        86         7  VAL       HB             -1.2717234283       -4.4495804574        7.4413516079  PROA      8               0.0000000000
        87         7  VAL       CG1            -1.9777234283       -4.7849948036        5.4522939878  PROA      8               0.0000000000
        88         7  VAL       HG11           -1.6687234283       -4.6289980489        4.3975404561  PROA      8               0.0000000000
        89         7  VAL       HG12           -2.2207234283       -5.8532628397        5.6038835756  PROA      8               0.0000000000
        90         7  VAL       HG13           -2.9037234283       -4.2035192461        5.6349170311  PROA      8               0.0000000000
        91         7  VAL       CG2             0.2852765717       -5.3272055531        6.1119276006  PROA      8               0.0000000000
        92         7  VAL       HG21            0.6982765717       -5.1342830720        5.0998061077  PROA      8               0.0000000000
        93         7  VAL       HG22            1.1042765717       -5.2130572974        6.8599798552  PROA      8               0.0000000000
        94         7  VAL       HG23           -0.0597234283       -6.3781301984        6.1631368777  PROA      8               0.0000000000
        95         7  VAL       C               0.8142765717       -2.5810082471        6.9977325205  PROA      8               0.0000000000
        96         7  VAL       O               0.6592765717       -2.4621874188        8.2054968232  PROA      8               0.0000000000
        97         8  TRP       N               2.0082765717       -2.4030459892        6.3915127297  PROA      9               0.0000000000
        98         8  TRP       HN              2.1139064123       -2.5351564501        5.4087630144  PROA      9               0.0000000000
        99         8  TRP       CA              3.2182765717       -2.0134510536        7.0920873412  PROA      9               0.0000000000
       100         8  TRP       HA              3.0282765717       -2.0397345904        8.1532033460  PROA      9               0.0000000000
       101         8  TRP       CB              4.4122765717       -2.9858085491        6.8193348875  PROA      9               0.0000000000
       102         8  TRP       HB1             4.4259454971       -3.2116633772        5.7298836279  PROA      9               0.0000000000
       103         8  TRP       HB2             4.4792765717       -3.1592878608        5.7234654024  PROA      9               0.0000000000
       104         8  TRP       CG              4.3112765717       -4.3173191591        7.5607959421  PROA      9               0.0000000000
       105         8  TRP       CD1             4.6122765717       -4.5806986202        8.8682745307  PROA      9               0.0000000000
       106         8  TRP       HD1             5.0242765717       -3.8683533550        9.5693231903  PROA      9               0.0000000000
       107         8  TRP       NE1             4.1962765717       -5.8492197913        9.2176611911  PROA      9               0.0000000000
       108         8  TRP       HE1             4.4062765717       -6.2690667435       10.0735703783  PROA      9               0.0000000000
       109         8  TRP       CE2             3.6662765717       -6.4576696241        8.1067701969  PROA      9               0.0000000000
       110         8  TRP       CD2             3.7792765717       -5.5446911164        7.0264701254  PROA      9               0.0000000000
       111         8  TRP       CE3             3.3562765717       -5.8929493128        5.7448445059  PROA      9               0.0000000000
       112         8  TRP       HE3             3.4002765717       -5.2086843523        4.9163600680  PROA      9               0.0000000000
       113         8  TRP       CZ3             2.7782765717       -7.1582383954        5.5728545715  PROA      9               0.0000000000
       114         8  TRP       HZ3             2.3162765717       -7.4383856732        4.6354525752  PROA      9               0.0000000000
       115         8  TRP       CZ2             3.0892765717       -7.7091899783        7.9308531621  PROA      9               0.0000000000
       116         8  TRP       HZ2             2.9532765717       -8.3884660730        8.7590041068  PROA      9               0.0000000000
       117         8  TRP       CH2             2.6332765717       -8.0472036484        6.6525516488  PROA      9               0.0000000000
       118         8  TRP       HH2             2.1502765717       -8.9910844934        6.4159804109  PROA      9               0.0000000000
       119         8  TRP       C               3.6132765717       -0.5739077729        6.7523151488  PROA      9               0.0000000000
       120         8  TRP       O               3.6992765717       -0.1379504822        5.5976661802  PROA      9               0.0000000000
       121         9  LEU       N               3.8702765717        0.2693360089        7.7623210520  PROA      10              0.0000000000
       122         9  LEU       HN              3.8936429729        0.0563432019        8.7369453311  PROA      10              0.0000000000
       123         9  LEU       CA              4.1522765717        1.6614557746        7.4477681025  PROA      10              0.0000000000
       124         9  LEU       HA              3.8522765717        1.8486557048        6.4250045981  PROA      10              0.0000000000
       125         9  LEU       CB              5.6572765717        2.0478283077        7.2455472687  PROA      10              0.0000000000
       126         9  LEU       HB1             6.0982846169        1.2990560029        6.5477205068  PROA      10              0.0000000000
       127         9  LEU       HB2             6.1532765717        1.3469227314        6.5357160400  PROA      10              0.0000000000
       128         9  LEU       CG              6.6722765717        2.1339840032        8.4294371268  PROA      10              0.0000000000
       129         9  LEU       HG              7.6252765717        2.4489936230        7.9243015613  PROA      10              0.0000000000
       130         9  LEU       CD1             6.3012765717        3.3407984645        9.3159182918  PROA      10              0.0000000000
       131         9  LEU       HD11            5.3122765717        3.1992652721        9.7924194517  PROA      10              0.0000000000
       132         9  LEU       HD12            7.0412765717        3.4546934578       10.1351459345  PROA      10              0.0000000000
       133         9  LEU       HD13            6.2762765717        4.2890578454        8.7484069292  PROA      10              0.0000000000
       134         9  LEU       CD2             7.0882765717        0.8870948421        9.2223686622  PROA      10              0.0000000000
       135         9  LEU       HD21            6.4202765717        0.0274325478        9.0162479699  PROA      10              0.0000000000
       136         9  LEU       HD22            8.1152765717        0.5940874757        8.9021988897  PROA      10              0.0000000000
       137         9  LEU       HD23            7.1412765717        1.0905713410       10.3022016652  PROA      10              0.0000000000
       138         9  LEU       C               3.2672765717        2.5681910689        8.2681168735  PROA      10              0.0000000000
       139         9  LEU       O               3.1422765717        2.4439527300        9.4831089867  PROA      10              0.0000000000
       140        10  TRP       N               2.5622765717        3.4763177759        7.5800137678  PROA      11              0.0000000000
       141        10  TRP       HN              2.6395807279        3.6108331251        6.5949566485  PROA      11              0.0000000000
       142        10  TRP       CA              1.6222765717        4.3391879791        8.2389287946  PROA      11              0.0000000000
       143        10  TRP       HA              1.6842765717        4.2125295444        9.3127680008  PROA      11              0.0000000000
       144        10  TRP       CB              1.9642765717        5.8426076874        8.0001209623  PROA      11              0.0000000000
       145        10  TRP       HB1             2.1088872664        5.9897963653        6.9067205187  PROA      11              0.0000000000
       146        10  TRP       HB2             2.0342765717        6.0241409398        6.9075800348  PROA      11              0.0000000000
       147        10  TRP       CG              3.2482765717        6.3466797425        8.6890341377  PROA      11              0.0000000000
       148        10  TRP       CD1             3.4032765717        6.9350623660        9.9195299273  PROA      11              0.0000000000
       149        10  TRP       HD1             2.6912765717        6.9803750989       10.7323175726  PROA      11              0.0000000000
       150        10  TRP       NE1             4.7182765717        7.3311495041       10.1025189408  PROA      11              0.0000000000
       151        10  TRP       HE1             5.1472765717        7.6824478123       10.9048745344  PROA      11              0.0000000000
       152        10  TRP       CE2             5.4492765717        6.9634352117        9.0096112598  PROA      11              0.0000000000
       153        10  TRP       CD2             4.5712765717        6.3318076912        8.1067293875  PROA      11              0.0000000000
       154        10  TRP       CE3             5.0512765717        5.8471321912        6.8983657586  PROA      11              0.0000000000
       155        10  TRP       HE3             4.3842765717        5.3576265417        6.2024654646  PROA      11              0.0000000000
       156        10  TRP       CZ3             6.4202765717        6.0147733601        6.6025255340  PROA      11              0.0000000000
       157        10  TRP       HZ3             6.6882765717        5.8339229764        5.5763027810  PROA      11              0.0000000000
       158        10  TRP       CZ2             6.8052765717        7.1220324299        8.7284068459  PROA      11              0.0000000000
       159        10  TRP       HZ2             7.4682765717        7.6238421441        9.4134623259  PROA      11              0.0000000000
       160        10  TRP       CH2             7.2832765717        6.6603669986        7.4894403292  PROA      11              0.0000000000
       161        10  TRP       HH2             8.3162765717        6.8221576322        7.2110291389  PROA      11              0.0000000000
       162        10  TRP       C               0.1672765717        3.9826512104        7.8979500084  PROA      11              0.0000000000
       163        10  TRP       O              -0.2607234283        3.5079805062        6.8392523545  PROA      11              0.0000000000
       164        11  LEU       N              -0.6877234283        4.2958638129        8.8652130883  PROA      12              0.0000000000
       165        11  LEU       HN             -0.3478785702        4.5429434778        9.7703437538  PROA      12              0.0000000000
       166        11  LEU       CA             -2.1087234283        4.3189910404        8.7464059701  PROA      12              0.0000000000
       167        11  LEU       HA             -2.4157234283        4.1509116119        7.7163228153  PROA      12              0.0000000000
       168        11  LEU       CB             -2.3637234283        5.7585497761        9.2314695188  PROA      12              0.0000000000
       169        11  LEU       HB1            -1.9072976730        5.8502401590       10.2440793417  PROA      12              0.0000000000
       170        11  LEU       HB2            -1.9017234283        5.7876692335       10.2517993954  PROA      12              0.0000000000
       171        11  LEU       CG             -3.7517234283        6.3800002526        9.3973890936  PROA      12              0.0000000000
       172        11  LEU       HG             -3.5637234283        7.4630970375        9.5875715178  PROA      12              0.0000000000
       173        11  LEU       CD1            -4.7987234283        6.5325259717        8.2757180612  PROA      12              0.0000000000
       174        11  LEU       HD11           -5.0287234283        5.5396523598        7.8459844336  PROA      12              0.0000000000
       175        11  LEU       HD12           -5.7297234283        7.0191761503        8.6290459595  PROA      12              0.0000000000
       176        11  LEU       HD13           -4.3757234283        7.1460157361        7.4529669998  PROA      12              0.0000000000
       177        11  LEU       CD2            -4.6447234283        5.5924554245       10.3600609711  PROA      12              0.0000000000
       178        11  LEU       HD21           -4.1277234283        5.4530070897       11.3325275062  PROA      12              0.0000000000
       179        11  LEU       HD22           -5.5937234283        6.1365464844       10.5381674519  PROA      12              0.0000000000
       180        11  LEU       HD23           -4.8817234283        4.5847513187        9.9483566656  PROA      12              0.0000000000
       181        11  LEU       C              -2.6267234283        3.2150745942        9.6690903581  PROA      12              0.0000000000
       182        11  LEU       O              -2.3757234283        3.2164222770       10.8736828966  PROA      12              0.0000000000
       183        12  TRP       N              -3.3217234283        2.2197141878        9.0972060504  PROA      13              0.0000000000
       184        12  TRP       HN             -3.5891294332        2.2035432588        8.1366643441  PROA      13              0.0000000000
       185        12  TRP       CA             -3.7387234283        1.0714684665        9.8665055782  PROA      13              0.0000000000
       186        12  TRP       HA             -3.6797234283        1.2974241514       10.9227868043  PROA      13              0.0000000000
       187        12  TRP       CB             -5.2277234283        0.6878692507        9.5854652936  PROA      13              0.0000000000
       188        12  TRP       HB1            -5.3396595577        0.5368080441        8.4887647397  PROA      13              0.0000000000
       189        12  TRP       HB2            -5.3527234283        0.4799347686        8.4989146729  PROA      13              0.0000000000
       190        12  TRP       CG             -6.2347234283        1.7561734315       10.0041431856  PROA      13              0.0000000000
       191        12  TRP       CD1            -6.8357234283        1.9602718694       11.2132225162  PROA      13              0.0097141113
       192        12  TRP       HD1            -6.6687234283        1.3787910770       12.1100034751  PROA      13              0.0285026440
       193        12  TRP       NE1            -7.6017234283        3.1103149641       11.1904655321  PROA      13              0.0057420550
       194        12  TRP       HE1            -8.1547234283        3.3628923082       11.9553221756  PROA      13              0.0000000000
       195        12  TRP       CE2            -7.5647234283        3.6286682909        9.9190608646  PROA      13              0.0000000000
       196        12  TRP       CD2            -6.7307234283        2.7938474824        9.1400074532  PROA      13              0.0000000000
       197        12  TRP       CE3            -6.4997234283        3.0582165974        7.7873622777  PROA      13              0.0000000000
       198        12  TRP       HE3            -5.8097234283        2.4156839385        7.2760797899  PROA      13              0.0000000000
       199        12  TRP       CZ3            -7.1267234283        4.1727733102        7.2187566728  PROA      13              0.0000000000
       200        12  TRP       HZ3            -6.9917234283        4.3762656916        6.1698482637  PROA      13              0.0000000000
       201        12  TRP       CZ2            -8.1627234283        4.7530053459        9.3618282500  PROA      13              0.0000000000
       202        12  TRP       HZ2            -8.8257234283        5.4203516431        9.8844810216  PROA      13              0.0000000000
       203        12  TRP       CH2            -7.9257234283        5.0186363222        7.9980741723  PROA      13              0.0000000000
       204        12  TRP       HH2            -8.3677234283        5.9159696370        7.5832996284  PROA      13              0.0000000000
       205        12  TRP       C              -2.8157234283       -0.1253852850        9.6237936143  PROA      13              0.0000000000
       206        12  TRP       O              -2.2307234283       -0.3468189946        8.5601944829  PROA      13              0.0000000000
       207        13  LEU       N              -2.7487234283       -1.0086442257       10.6239329265  PROA      14              0.0000000000
       208        13  LEU       HN             -3.1456304301       -0.7048553821       11.4876351787  PROA      14              0.0000000000
       209        13  LEU       CA             -2.1967234283       -2.3310352836       10.6622198677  PROA      14              0.0000000000
       210        13  LEU       HA             -1.9257234283       -2.6268936696        9.6547096615  PROA      14              0.0000000000
       211        13  LEU       CB             -3.4727234283       -3.0662435101       11.1784067173  PROA      14              0.0090019548
       212        13  LEU       HB1            -3.7940384332       -2.5508305273       12.1128671898  PROA      14              0.0283556261
       213        13  LEU       HB2            -3.7317234283       -2.5995685232       12.1624714797  PROA      14              0.0301411777
       214        13  LEU       CG             -3.5527234283       -4.5606589023       11.5519139270  PROA      14              0.0194175294
       215        13  LEU       HG             -4.6387234283       -4.6943866091       11.7853532134  PROA      14              0.0150839139
       216        13  LEU       CD1            -3.5707234283       -5.6979258069       10.4914065072  PROA      14              0.0000000000
       217        13  LEU       HD11           -2.8757234283       -5.4566108465        9.6634674455  PROA      14              0.0000000000
       218        13  LEU       HD12           -3.2927234283       -6.6730160236       10.9274146141  PROA      14              0.0000000000
       219        13  LEU       HD13           -4.5887234283       -5.7935264285       10.0508017851  PROA      14              0.0000000000
       220        13  LEU       CD2            -2.4467234283       -5.0219986036       12.4917775767  PROA      14              0.0389697853
       221        13  LEU       HD21           -2.4397234283       -4.3944261679       13.4089617665  PROA      14              0.0585767539
       222        13  LEU       HD22           -2.6067234283       -6.0725437467       12.8035417539  PROA      14              0.0490093951
       223        13  LEU       HD23           -1.4507234283       -4.9503122392       12.0049120253  PROA      14              0.0243048224
       224        13  LEU       C              -0.9417234283       -2.3046640025       11.5664745638  PROA      14              0.0197755222
       225        13  LEU       O              -1.0027234283       -2.0023863088       12.7599707707  PROA      14              0.0453311634
       226        14  TRP       N               0.2432765717       -2.5779647167       10.9713781686  PROA      15              0.0001631266
       227        14  TRP       HN              0.3065799196       -2.8058547604       10.0026332827  PROA      15              0.0000000000
       228        14  TRP       CA              1.5182765717       -2.5631350064       11.6879848109  PROA      15              0.0227969814
       229        14  TRP       HA              1.3212765717       -2.5063365757       12.7475559214  PROA      15              0.0478715786
       230        14  TRP       CB              2.3432765717       -3.8583681096       11.4578626511  PROA      15              0.0170100029
       231        14  TRP       HB1             2.4995519431       -3.9728319081       10.3621540506  PROA      15              0.0000000000
       232        14  TRP       HB2             2.5352765717       -3.9571451247       10.3700285179  PROA      15              0.0000000000
       233        14  TRP       CG              1.6672765717       -5.1212757694       11.9511954420  PROA      15              0.0288409474
       234        14  TRP       CD1             1.7062765717       -5.6893897701       13.1978639955  PROA      15              0.0473887209
       235        14  TRP       HD1             2.2232765717       -5.2969051419       14.0616092222  PROA      15              0.0609799686
       236        14  TRP       NE1             0.8722765717       -6.7873431514       13.2502125622  PROA      15              0.0497372886
       237        14  TRP       HE1             0.8532765717       -7.4042372527       14.0070438960  PROA      15              0.0999184553
       238        14  TRP       CE2             0.3182765717       -6.9730895998       12.0008194068  PROA      15              0.0294269966
       239        14  TRP       CD2             0.8002765717       -5.9480504004       11.1575729186  PROA      15              0.0048506038
       240        14  TRP       CE3             0.4092765717       -5.8614822985        9.8288400773  PROA      15              0.0000000000
       241        14  TRP       HE3             0.7692765717       -5.0791362963        9.1782098191  PROA      15              0.0000000000
       242        14  TRP       CZ3            -0.4927234283       -6.8225019870        9.3508744317  PROA      15              0.0000000000
       243        14  TRP       HZ3            -0.8677234283       -6.7648791711        8.3387772965  PROA      15              0.0000000000
       244        14  TRP       CZ2            -0.5697234283       -7.9318469474       11.5267114566  PROA      15              0.0185148195
       245        14  TRP       HZ2            -0.9677234283       -8.6835927682       12.1853184873  PROA      15              0.0313790576
       246        14  TRP       CH2            -0.9797234283       -7.8400258915       10.1866029186  PROA      15              0.0000000000
       247        14  TRP       HH2            -1.6817234283       -8.5431423870        9.7585466211  PROA      15              0.0000000000
       248        14  TRP       C               2.4082765717       -1.3651889355       11.3473248464  PROA      15              0.0138328418
       249        14  TRP       OT1             1.9782947744       -0.5281351849       10.5094366244  PROA      15              0.0000000000
       250        14  TRP       OT2             3.5261070914       -1.2763936139       11.9219293367  PROA      15              0.0263014214
       251        15  GLY       N              -0.0817234283        3.0878904763       -1.7839306058  PROB      2               0.0000000000
       252        15  GLY       HT1            -0.5480946416        3.7559213677       -1.1375308691  PROB      2               0.0000000000
       253        15  GLY       HT2            -0.4618067928        2.1325107687       -1.6277696297  PROB      2               0.0000000000
       254        15  GLY       HT3            -0.2609438559        3.3753015803       -2.7672285747  PROB      2               0.0000000000
       255        15  GLY       CA              1.3572765717        3.0878030879       -1.5303601178  PROB      2               0.0000000000
       256        15  GLY       HA1             1.4953676477        2.7595664578       -0.5092736722  PROB      2               0.0000000000
       257        15  GLY       HA2             1.7302765717        4.0759716505       -1.7407380919  PROB      2               0.0000000000
       258        15  GLY       C               2.0932765717        2.1609681073       -2.4115036469  PROB      2               0.0000000000
       259        15  GLY       O               1.8802765717        2.1648093863       -3.6134363591  PROB      2               0.0000000000
       260        16  ALA       N               3.0142765717        1.3634418797       -1.8380327094  PROB      3               0.0000000000
       261        16  ALA       HN              3.2504649556        1.4327108983       -0.8692102229  PROB      3               0.0000000000
       262        16  ALA       CA              3.7262765717        0.3528850094       -2.5772761145  PROB      3               0.0000000000
       263        16  ALA       HA              3.3922765717        0.4669861168       -3.5690951188  PROB      3               0.0000000000
       264        16  ALA       CB              5.2572765717        0.5097652629       -2.4193882236  PROB      3               0.0000000000
       265        16  ALA       HB1             5.5682765717        0.3828373273       -1.3645734062  PROB      3               0.0000000000
       266        16  ALA       HB2             5.7882765717       -0.2410154396       -3.0507180397  PROB      3               0.0000000000
       267        16  ALA       HB3             5.5582765717        1.5133402494       -2.7741152264  PROB      3               0.0000000000
       268        16  ALA       C               3.3062765717       -1.0353635288       -2.1898190252  PROB      3               0.0000000000
       269        16  ALA       O               2.9222765717       -1.2822775070       -1.0558249832  PROB      3               0.0000000000
       270        17  LEU       N               3.3532765717       -1.9837628593       -3.1386750259  PROB      4               0.0000000000
       271        17  LEU       HN              3.6425123297       -1.9113866937       -4.0909926079  PROB      4               0.0000000000
       272        17  LEU       CA              2.9172765717       -3.3419420989       -2.7361900533  PROB      4               0.0000000000
       273        17  LEU       HA              2.5252765717       -3.3699652130       -1.7310827431  PROB      4               0.0000000000
       274        17  LEU       CB              4.0312765717       -4.4445752105       -2.8138187928  PROB      4               0.0000000000
       275        17  LEU       HB1             4.6810460751       -4.1950924529       -3.6842601728  PROB      4               0.0000000000
       276        17  LEU       HB2             4.5862765717       -4.1936349564       -3.7526467796  PROB      4               0.0000000000
       277        17  LEU       CG              3.6052765717       -5.9402859022       -2.9844368647  PROB      4               0.0000000000
       278        17  LEU       HG              2.7212765717       -5.8711611501       -3.6595507578  PROB      4               0.0000000000
       279        17  LEU       CD1             4.6672765717       -6.7836062468       -3.6807390955  PROB      4               0.0000000000
       280        17  LEU       HD11            5.2412765717       -6.1382940743       -4.3572870983  PROB      4               0.0000000000
       281        17  LEU       HD12            5.3552765717       -7.2182386454       -2.9260691821  PROB      4               0.0000000000
       282        17  LEU       HD13            4.2062765717       -7.6181250775       -4.2603685644  PROB      4               0.0000000000
       283        17  LEU       CD2             2.8132765717       -6.8359210191       -2.0045171040  PROB      4               0.0000000000
       284        17  LEU       HD21            1.8812765717       -6.3295848782       -1.6715475673  PROB      4               0.0000000000
       285        17  LEU       HD22            2.5312765717       -7.8066516447       -2.4778246705  PROB      4               0.0000000000
       286        17  LEU       HD23            3.4242765717       -7.0434315571       -1.1056748617  PROB      4               0.0000000000
       287        17  LEU       C               1.7572765717       -3.7179314737       -3.6080535690  PROB      4               0.0000000000
       288        17  LEU       O               1.8622765717       -3.6086597323       -4.8220452027  PROB      4               0.0000000000
       289        18  ALA       N               0.6492765717       -4.2365372796       -3.0001094778  PROB      5               0.0000000000
       290        18  ALA       HN              0.5027483105       -4.3030039040       -2.0135438101  PROB      5               0.0000000000
       291        18  ALA       CA             -0.4317234283       -4.7458226541       -3.8269821447  PROB      5               0.0000000000
       292        18  ALA       HA             -0.1957234283       -4.4674224674       -4.8347952901  PROB      5               0.0000000000
       293        18  ALA       CB             -0.6647234283       -6.2620881355       -3.6304115722  PROB      5               0.0000000000
       294        18  ALA       HB1            -0.8447234283       -6.4768174034       -2.5546939784  PROB      5               0.0000000000
       295        18  ALA       HB2            -1.5407234283       -6.6069617232       -4.2167145728  PROB      5               0.0000000000
       296        18  ALA       HB3             0.2222765717       -6.8376041181       -3.9637677687  PROB      5               0.0000000000
       297        18  ALA       C              -1.6717234283       -3.9726754731       -3.4757679131  PROB      5               0.0000000000
       298        18  ALA       O              -2.0827234283       -3.9011582947       -2.3159553018  PROB      5               0.0000000000
       299        19  VAL       N              -2.3367234283       -3.3495018357       -4.4535100149  PROB      6               0.0000000000
       300        19  VAL       HN             -2.0808185656       -3.3209321050       -5.4162706455  PROB      6               0.0000000000
       301        19  VAL       CA             -3.5617234283       -2.6265822190       -4.1340163094  PROB      6               0.0000000000
       302        19  VAL       HA             -3.4737234283       -2.1740761523       -3.1520110856  PROB      6               0.0000000000
       303        19  VAL       CB             -4.8707234283       -3.4350029374       -4.2182833973  PROB      6               0.0000000000
       304        19  VAL       HB             -5.0167234283       -3.8420837417       -5.2404077629  PROB      6               0.0000000000
       305        19  VAL       CG1            -4.8597234283       -4.6231216957       -3.2358497781  PROB      6               0.0000000000
       306        19  VAL       HG11           -4.6597234283       -4.2554849276       -2.2040730548  PROB      6               0.0000000000
       307        19  VAL       HG12           -5.8367234283       -5.1441675037       -3.2491262970  PROB      6               0.0000000000
       308        19  VAL       HG13           -4.0687234283       -5.3515556481       -3.5178922873  PROB      6               0.0000000000
       309        19  VAL       CG2            -6.0747234283       -2.5447746835       -3.8247841521  PROB      6               0.0000000000
       310        19  VAL       HG21           -5.8747234283       -2.0090586650       -2.8723948685  PROB      6               0.0000000000
       311        19  VAL       HG22           -6.2887234283       -1.8045623142       -4.6259393483  PROB      6               0.0000000000
       312        19  VAL       HG23           -6.9907234283       -3.1626468297       -3.6972890110  PROB      6               0.0000000000
       313        19  VAL       C              -3.6147234283       -1.4783022759       -5.0827176177  PROB      6               0.0000000000
       314        19  VAL       O              -3.6797234283       -1.6962361409       -6.2888676210  PROB      6               0.0000000000
       315        20  VAL       N              -3.5717234283       -0.2331704975       -4.5525856960  PROB      7               0.0000000000
       316        20  VAL       HN             -3.5630371929        0.0157627505       -3.5876150501  PROB      7               0.0000000000
       317        20  VAL       CA             -3.5327234283        0.9003483568       -5.4672266129  PROB      7               0.0000000000
       318        20  VAL       HA             -3.4437234283        0.5067082006       -6.4682003525  PROB      7               0.0000000000
       319        20  VAL       CB             -4.7727234283        1.7886630400       -5.3572310506  PROB      7               0.0000000000
       320        20  VAL       HB             -4.6057234283        2.5625529867       -4.5751067955  PROB      7               0.0000000000
       321        20  VAL       CG1            -5.0837234283        2.4682446023       -6.7055607210  PROB      7               0.0000000000
       322        20  VAL       HG11           -5.2697234283        1.6891017016       -7.4763092794  PROB      7               0.0000000000
       323        20  VAL       HG12           -5.9987234283        3.0907460185       -6.6138765523  PROB      7               0.0000000000
       324        20  VAL       HG13           -4.2467234283        3.1052339385       -7.0568292588  PROB      7               0.0000000000
       325        20  VAL       CG2            -5.9907234283        0.9545310471       -4.8965697667  PROB      7               0.0000000000
       326        20  VAL       HG21           -6.1467234283        0.1034953118       -5.5883473157  PROB      7               0.0000000000
       327        20  VAL       HG22           -5.8537234283        0.5687742567       -3.8605332332  PROB      7               0.0000000000
       328        20  VAL       HG23           -6.9147234283        1.5699624077       -4.9106495536  PROB      7               0.0000000000
       329        20  VAL       C              -2.2537234283        1.6653664232       -5.1926408191  PROB      7               0.0000000000
       330        20  VAL       O              -1.9337234283        2.0391421724       -4.0540356684  PROB      7               0.0000000000
       331        21  VAL       N              -1.3957234283        1.9598003856       -6.1854900734  PROB      8               0.0000000000
       332        21  VAL       HN             -1.4432608868        1.4984342150       -7.0675858770  PROB      8               0.0000000000
       333        21  VAL       CA             -0.3487234283        2.9427701222       -6.0838264281  PROB      8               0.0000000000
       334        21  VAL       HA              0.1062765717        2.9079572791       -5.1053255002  PROB      8               0.0000000000
       335        21  VAL       CB             -0.8507234283        4.3598315107       -6.4150801397  PROB      8               0.0000000000
       336        21  VAL       HB             -1.2717234283        4.4495804574       -7.4413516079  PROB      8               0.0000000000
       337        21  VAL       CG1            -1.9777234283        4.7849948036       -5.4522939878  PROB      8               0.0000000000
       338        21  VAL       HG11           -1.6687234283        4.6289980489       -4.3975404561  PROB      8               0.0000000000
       339        21  VAL       HG12           -2.2207234283        5.8532628397       -5.6038835756  PROB      8               0.0000000000
       340        21  VAL       HG13           -2.9037234283        4.2035192461       -5.6349170311  PROB      8               0.0000000000
       341        21  VAL       CG2             0.2852765717        5.3272055531       -6.1119276006  PROB      8               0.0000000000
       342        21  VAL       HG21            0.6982765717        5.1342830720       -5.0998061077  PROB      8               0.0000000000
       343        21  VAL       HG22            1.1042765717        5.2130572974       -6.8599798552  PROB      8               0.0000000000
       344        21  VAL       HG23           -0.0597234283        6.3781301984       -6.1631368777  PROB      8               0.0000000000
       345        21  VAL       C               0.8142765717        2.5810082471       -6.9977325205  PROB      8               0.0000000000
       346        21  VAL       O               0.6592765717        2.4621874188       -8.2054968232  PROB      8               0.0000000000
       347        22  TRP       N               2.0082765717        2.4030459892       -6.3915127297  PROB      9               0.0000000000
       348        22  TRP       HN              2.1139064123        2.5351564501       -5.4087630144  PROB      9               0.0000000000
       349        22  TRP       CA              3.2182765717        2.0134510536       -7.0920873412  PROB      9               0.0000000000
       350        22  TRP       HA              3.0282765717        2.0397345904       -8.1532033460  PROB      9               0.0000000000
       351        22  TRP       CB              4.4122765717        2.9858085491       -6.8193348875  PROB      9               0.0000000000
       352        22  TRP       HB1             4.4259454971        3.2116633772       -5.7298836279  PROB      9               0.0000000000
       353        22  TRP       HB2             4.4792765717        3.1592878608       -5.7234654024  PROB      9               0.0000000000
       354        22  TRP       CG              4.3112765717        4.3173191591       -7.5607959421  PROB      9               0.0000000000
       355        22  TRP       CD1             4.6122765717        4.5806986202       -8.8682745307  PROB      9               0.0000000000
       356        22  TRP       HD1             5.0242765717        3.8683533550       -9.5693231903  PROB      9               0.0000000000
       357        22  TRP       NE1             4.1962765717        5.8492197913       -9.2176611911  PROB      9               0.0000000000
       358        22  TRP       HE1             4.4062765717        6.2690667435      -10.0735703783  PROB      9               0.0000000000
       359        22  TRP       CE2             3.6662765717        6.4576696241       -8.1067701969  PROB      9               0.0000000000
       360        22  TRP       CD2             3.7792765717        5.5446911164       -7.0264701254  PROB      9               0.0000000000
       361        22  TRP       CE3             3.3562765717        5.8929493128       -5.7448445059  PROB      9               0.0000000000
       362        22  TRP       HE3             3.4002765717        5.2086843523       -4.9163600680  PROB      9               0.0000000000
       363        22  TRP       CZ3             2.7782765717        7.1582383954       -5.5728545715  PROB      9               0.0000000000
       364        22  TRP       HZ3             2.3162765717        7.4383856732       -4.6354525752  PROB      9               0.0000000000
       365        22  TRP       CZ2             3.0892765717        7.7091899783       -7.9308531621  PROB      9               0.0000000000
       366        22  TRP       HZ2             2.9532765717        8.3884660730       -8.7590041068  PROB      9               0.0000000000
       367        22  TRP       CH2             2.6332765717        8.0472036484       -6.6525516488  PROB      9               0.0000000000
       368        22  TRP       HH2             2.1502765717        8.9910844934       -6.4159804109  PROB      9               0.0000000000
       369        22  TRP       C               3.6132765717        0.5739077729       -6.7523151488  PROB      9               0.0000000000
       370        22  TRP       O               3.6992765717        0.1379504822       -5.5976661802  PROB      9               0.0000000000
       371        23  LEU       N               3.8702765717       -0.2693360089       -7.7623210520  PROB      10              0.0000000000
       372        23  LEU       HN              3.8936429729       -0.0563432019       -8.7369453311  PROB      10              0.0000000000
       373        23  LEU       CA              4.1522765717       -1.6614557746       -7.4477681025  PROB      10              0.0000000000
       374        23  LEU       HA              3.8522765717       -1.8486557048       -6.4250045981  PROB      10              0.0000000000
       375        23  LEU       CB              5.6572765717       -2.0478283077       -7.2455472687  PROB      10              0.0000000000
       376        23  LEU       HB1             6.0982846169       -1.2990560029       -6.5477205068  PROB      10              0.0000000000
       377        23  LEU       HB2             6.1532765717       -1.3469227314       -6.5357160400  PROB      10              0.0000000000
       378        23  LEU       CG              6.6722765717       -2.1339840032       -8.4294371268  PROB      10              0.0000000000
       379        23  LEU       HG              7.6252765717       -2.4489936230       -7.9243015613  PROB      10              0.0000000000
       380        23  LEU       CD1             6.3012765717       -3.3407984645       -9.3159182918  PROB      10              0.0000000000
       381        23  LEU       HD11            5.3122765717       -3.1992652721       -9.7924194517  PROB      10              0.0000000000
       382        23  LEU       HD12            7.0412765717       -3.4546934578      -10.1351459345  PROB      10              0.0000000000
       383        23  LEU       HD13            6.2762765717       -4.2890578454       -8.7484069292  PROB      10              0.0000000000
       384        23  LEU       CD2             7.0882765717       -0.8870948421       -9.2223686622  PROB      10              0.0000000000
       385        23  LEU       HD21            6.4202765717       -0.0274325478       -9.0162479699  PROB      10              0.0000000000
       386        23  LEU       HD22            8.1152765717       -0.5940874757       -8.9021988897  PROB      10              0.0000000000
       387        23  LEU       HD23            7.1412765717       -1.0905713410      -10.3022016652  PROB      10              0.0000000000
       388        23  LEU       C               3.2672765717       -2.5681910689       -8.2681168735  PROB      10              0.0000000000
       389        23  LEU       O               3.1422765717       -2.4439527300       -9.4831089867  PROB      10              0.0000000000
       390        24  TRP       N               2.5622765717       -3.4763177759       -7.5800137678  PROB      11              0.0000000000
       391        24  TRP       HN              2.6395807279       -3.6108331251       -6.5949566485  PROB      11              0.0000000000
       392        24  TRP       CA              1.6222765717       -4.3391879791       -8.2389287946  PROB      11              0.0000000000
       393        24  TRP       HA              1.6842765717       -4.2125295444       -9.3127680008  PROB      11              0.0000000000
       394        24  TRP       CB              1.9642765717       -5.8426076874       -8.0001209623  PROB      11              0.0000000000
       395        24  TRP       HB1             2.1088872664       -5.9897963653       -6.9067205187  PROB      11              0.0000000000
       396        24  TRP       HB2             2.0342765717       -6.0241409398       -6.9075800348  PROB      11              0.0000000000
       397        24  TRP       CG              3.2482765717       -6.3466797425       -8.6890341377  PROB      11              0.0000000000
       398        24  TRP       CD1             3.4032765717       -6.9350623660       -9.9195299273  PROB      11              0.0000000000
       399        24  TRP       HD1             2.6912765717       -6.9803750989      -10.7323175726  PROB      11              0.0000000000
       400        24  TRP       NE1             4.7182765717       -7.3311495041      -10.1025189408  PROB      11              0.0000000000
       401        24  TRP       HE1             5.1472765717       -7.6824478123      -10.9048745344  PROB      11              0.0000000000
       402        24  TRP       CE2             5.4492765717       -6.9634352117       -9.0096112598  PROB      11              0.0000000000
       403        24  TRP       CD2             4.5712765717       -6.3318076912       -8.1067293875  PROB      11              0.0000000000
       404        24  TRP       CE3             5.0512765717       -5.8471321912       -6.8983657586  PROB      11              0.0000000000
       405        24  TRP       HE3             4.3842765717       -5.3576265417       -6.2024654646  PROB      11              0.0000000000
       406        24  TRP       CZ3             6.4202765717       -6.0147733601       -6.6025255340  PROB      11              0.0000000000
       407        24  TRP       HZ3             6.6882765717       -5.8339229764       -5.5763027810  PROB      11              0.0000000000
       408        24  TRP       CZ2             6.8052765717       -7.1220324299       -8.7284068459  PROB      11              0.0000000000
       409        24  TRP       HZ2             7.4682765717       -7.6238421441       -9.4134623259  PROB      11              0.0000000000
       410        24  TRP       CH2             7.2832765717       -6.6603669986       -7.4894403292  PROB      11              0.0000000000
       411        24  TRP       HH2             8.3162765717       -6.8221576322       -7.2110291389  PROB      11              0.0000000000
       412        24  TRP       C               0.1672765717       -3.9826512104       -7.8979500084  PROB      11              0.0000000000
       413        24  TRP       O              -0.2607234283       -3.5079805062       -6.8392523545  PROB      11              0.0000000000
       414        25  LEU       N              -0.6877234283       -4.2958638129       -8.8652130883  PROB      12              0.0000000000
       415        25  LEU       HN             -0.3478785702       -4.5429434778       -9.7703437538  PROB      12              0.0000000000
       416        25  LEU       CA             -2.1087234283       -4.3189910404       -8.7464059701  PROB      12              0.0000000000
       417        25  LEU       HA             -2.4157234283       -4.1509116119       -7.7163228153  PROB      12              0.0000000000
       418        25  LEU       CB             -2.3637234283       -5.7585497761       -9.2314695188  PROB      12              0.0000000000
       419        25  LEU       HB1            -1.9072976730       -5.8502401590      -10.2440793417  PROB      12              0.0000000000
       420        25  LEU       HB2            -1.9017234283       -5.7876692335      -10.2517993954  PROB      12              0.0000000000
       421        25  LEU       CG             -3.7517234283       -6.3800002526       -9.3973890936  PROB      12              0.0000000000
       422        25  LEU       HG             -3.5637234283       -7.4630970375       -9.5875715178  PROB      12              0.0000000000
       423        25  LEU       CD1            -4.7987234283       -6.5325259717       -8.2757180612  PROB      12              0.0000000000
       424        25  LEU       HD11           -5.0287234283       -5.5396523598       -7.8459844336  PROB      12              0.0000000000
       425        25  LEU       HD12           -5.7297234283       -7.0191761503       -8.6290459595  PROB      12              0.0000000000
       426        25  LEU       HD13           -4.3757234283       -7.1460157361       -7.4529669998  PROB      12              0.0000000000
       427        25  LEU       CD2            -4.6447234283       -5.5924554245      -10.3600609711  PROB      12              0.0000000000
       428        25  LEU       HD21           -4.1277234283       -5.4530070897      -11.3325275062  PROB      12              0.0000000000
       429        25  LEU       HD22           -5.5937234283       -6.1365464844      -10.5381674519  PROB      12              0.0000000000
       430        25  LEU       HD23           -4.8817234283       -4.5847513187       -9.9483566656  PROB      12              0.0000000000
       431        25  LEU       C              -2.6267234283       -3.2150745942       -9.6690903581  PROB      12              0.0000000000
       432        25  LEU       O              -2.3757234283       -3.2164222770      -10.8736828966  PROB      12              0.0000000000
       433        26  TRP       N              -3.3217234283       -2.2197141878       -9.0972060504  PROB      13              0.0000000000
       434        26  TRP       HN             -3.5891294332       -2.2035432588       -8.1366643441  PROB      13              0.0000000000
       435        26  TRP       CA             -3.7387234283       -1.0714684665       -9.8665055782  PROB      13              0.0000000000
       436        26  TRP       HA             -3.6797234283       -1.2974241514      -10.9227868043  PROB      13              0.0000000000
       437        26  TRP       CB             -5.2277234283       -0.6878692507       -9.5854652936  PROB      13              0.0000000000
       438        26  TRP       HB1            -5.3396595577       -0.5368080441       -8.4887647397  PROB      13              0.0000000000
       439        26  TRP       HB2            -5.3527234283       -0.4799347686       -8.4989146729  PROB      13              0.0000000000
       440        26  TRP       CG             -6.2347234283       -1.7561734315      -10.0041431856  PROB      13              0.0000000000
       441        26  TRP       CD1            -6.8357234283       -1.9602718694      -11.2132225162  PROB      13              0.0000000000
       442        26  TRP       HD1            -6.6687234283       -1.3787910770      -12.1100034751  PROB      13              0.0000000000
       443        26  TRP       NE1            -7.6017234283       -3.1103149641      -11.1904655321  PROB      13              0.0000000000
       444        26  TRP       HE1            -8.1547234283       -3.3628923082      -11.9553221756  PROB      13              0.0000000000
       445        26  TRP       CE2            -7.5647234283       -3.6286682909       -9.9190608646  PROB      13              0.0000000000
       446        26  TRP       CD2            -6.7307234283       -2.7938474824       -9.1400074532  PROB      13              0.0000000000
       447        26  TRP       CE3            -6.4997234283       -3.0582165974       -7.7873622777  PROB      13              0.0000000000
       448        26  TRP       HE3            -5.8097234283       -2.4156839385       -7.2760797899  PROB      13              0.0000000000
       449        26  TRP       CZ3            -7.1267234283       -4.1727733102       -7.2187566728  PROB      13              0.0000000000
       450        26  TRP       HZ3            -6.9917234283       -4.3762656916       -6.1698482637  PROB      13              0.0000000000
       451        26  TRP       CZ2            -8.1627234283       -4.7530053459       -9.3618282500  PROB      13              0.0000000000
       452        26  TRP       HZ2            -8.8257234283       -5.4203516431       -9.8844810216  PROB      13              0.0000000000
       453        26  TRP       CH2            -7.9257234283       -5.0186363222       -7.9980741723  PROB      13              0.0000000000
       454        26  TRP       HH2            -8.3677234283       -5.9159696370       -7.5832996284  PROB      13              0.0000000000
       455        26  TRP       C              -2.8157234283        0.1253852850       -9.6237936143  PROB      13              0.0000000000
       456        26  TRP       O              -2.2307234283        0.3468189946       -8.5601944829  PROB      13              0.0000000000
       457        27  LEU       N              -2.7487234283        1.0086442257      -10.6239329265  PROB      14              0.0000000000
       458        27  LEU       HN             -3.1456304301        0.7048553821      -11.4876351787  PROB      14              0.0000000000
       459        27  LEU       CA             -2.1967234283        2.3310352836      -10.6622198677  PROB      14              0.0000000000
       460        27  LEU       HA             -1.9257234283        2.6268936696       -9.6547096615  PROB      14              0.0000000000
       461        27  LEU       CB             -3.4727234283        3.0662435101      -11.1784067173  PROB      14              0.0000000000
       462        27  LEU       HB1            -3.7940384332        2.5508305273      -12.1128671898  PROB      14              0.0000000000
       463        27  LEU       HB2            -3.7317234283        2.5995685232      -12.1624714797  PROB      14              0.0000000000
       464        27  LEU       CG             -3.5527234283        4.5606589023      -11.5519139270  PROB      14              0.0000000000
       465        27  LEU       HG             -4.6387234283        4.6943866091      -11.7853532134  PROB      14              0.0000000000
       466        27  LEU       CD1            -3.5707234283        5.6979258069      -10.4914065072  PROB      14              0.0000000000
       467        27  LEU       HD11           -2.8757234283        5.4566108465       -9.6634674455  PROB      14              0.0000000000
       468        27  LEU       HD12           -3.2927234283        6.6730160236      -10.9274146141  PROB      14              0.0000000000
       469        27  LEU       HD13           -4.5887234283        5.7935264285      -10.0508017851  PROB      14              0.0000000000
       470        27  LEU       CD2            -2.4467234283        5.0219986036      -12.4917775767  PROB      14              0.0000000000
       471        27  LEU       HD21           -2.4397234283        4.3944261679      -13.4089617665  PROB      14              0.0000000000
       472        27  LEU       HD22           -2.6067234283        6.0725437467      -12.8035417539  PROB      14              0.0000000000
       473        27  LEU       HD23           -1.4507234283        4.9503122392      -12.0049120253  PROB      14              0.0000000000
       474        27  LEU       C              -0.9417234283        2.3046640025      -11.5664745638  PROB      14              0.0000000000
       475        27  LEU       O              -1.0027234283        2.0023863088      -12.7599707707  PROB      14              0.0000000000
       476        28  TRP       N               0.2432765717        2.5779647167      -10.9713781686  PROB      15              0.0000000000
       477        28  TRP       HN              0.3065799196        2.8058547604      -10.0026332827  PROB      15              0.0000000000
       478        28  TRP       CA              1.5182765717        2.5631350064      -11.6879848109  PROB      15              0.0000000000
       479        28  TRP       HA              1.3212765717        2.5063365757      -12.7475559214  PROB      15              0.0000000000
       480        28  TRP       CB              2.3432765717        3.8583681096      -11.4578626511  PROB      15              0.0000000000
       481        28  TRP       HB1             2.4995519431        3.9728319081      -10.3621540506  PROB      15              0.0000000000
       482        28  TRP       HB2             2.5352765717        3.9571451247      -10.3700285179  PROB      15              0.0000000000
       483        28  TRP       CG              1.6672765717        5.1212757694      -11.9511954420  PROB      15              0.0000000000
       484        28  TRP       CD1             1.7062765717        5.6893897701      -13.1978639955  PROB      15              0.0000000000
       485        28  TRP       HD1             2.2232765717        5.2969051419      -14.0616092222  PROB      15              0.0000000000
       486        28  TRP       NE1             0.8722765717        6.7873431514      -13.2502125622  PROB      15              0.0000000000
       487        28  TRP       HE1             0.8532765717        7.4042372527      -14.0070438960  PROB      15              0.0000000000
       488        28  TRP       CE2             0.3182765717        6.9730895998      -12.0008194068  PROB      15              0.0000000000
       489        28  TRP       CD2             0.8002765717        5.9480504004      -11.1575729186  PROB      15              0.0000000000
       490        28  TRP       CE3             0.4092765717        5.8614822985       -9.8288400773  PROB      15              0.0000000000
       491        28  TRP       HE3             0.7692765717        5.0791362963       -9.1782098191  PROB      15              0.0000000000
       492        28  TRP       CZ3            -0.4927234283        6.8225019870       -9.3508744317  PROB      15              0.0000000000
       493        28  TRP       HZ3            -0.8677234283        6.7648791711       -8.3387772965  PROB      15              0.0000000000
       494        28  TRP       CZ2            -0.5697234283        7.9318469474      -11.5267114566  PROB      15              0.0000000000
       495        28  TRP       HZ2            -0.9677234283        8.6835927682      -12.1853184873  PROB      15              0.0000000000
       496        28  TRP       CH2            -0.9797234283        7.8400258915      -10.1866029186  PROB      15              0.0000000000
       497        28  TRP       HH2            -1.6817234283        8.5431423870       -9.7585466211  PROB      15              0.0000000000
       498        28  TRP       C               2.4082765717        1.3651889355      -11.3473248464  PROB      15              0.0000000000
       499        28  TRP       OT1             1.9782947744        0.5281351849      -10.5094366244  PROB      15              0.0000000000
       500        28  TRP       OT2             3.5261070914        1.2763936139      -11.9219293367  PROB      15              0.0000000000
