* GENERATED BY CHARMM-GUI (HTTP://WWW.CHARMM-GUI.ORG) V3.7 ON JUL, 07. 2026. JOB
* GENERATES LIPID PACKING USING BIG SPHERES
*  DATE:     7/ 7/26      9:27:56      CREATED BY USER: charmm-gui
*
       132  EXT
         1         1  DOPC      POLO           19.2612720649       14.3048824831       11.9119372712  HEAD      1               0.0000000000
         2         2  DOPC      POLO           -4.4325007473      -12.9956819830       11.9680234019  HEAD      2               0.0000000000
         3         3  DOPC      POLO          -17.6160444733       28.9276615651       11.9407506481  HEAD      3               0.0000000000
         4         4  DOPC      POLO          -14.8142811219      -23.7286853947       12.0643389257  HEAD      4               0.0000000000
         5         5  DOPC      POLO            0.6593942794      -27.9231506782       12.1660254811  HEAD      5               0.0000000000
         6         6  DOPC      POLO           11.8954129012        4.1172212042       12.0328168292  HEAD      6               0.0000000000
         7         7  DOPC      POLO          -24.7139201960       34.4686297696       11.9259907213  HEAD      7               0.0000000000
         8         8  DOPC      POLO           29.4141839858       26.6351377449       11.8791763192  HEAD      8               0.0000000000
         9         9  DOPC      POLO          -31.6519641765      -30.2076442058       11.8875625237  HEAD      9               0.0000000000
        10        10  DOPC      POLO          -27.5258894954        6.5836495679       12.0761277337  HEAD      10              0.0000000000
        11        11  DOPC      POLO          -11.1742805748       23.5684538167       11.9510958060  HEAD      11              0.0000000000
        12        12  DOPC      POLO           27.8595590705       17.2946934927       11.8977343094  HEAD      12              0.0000000000
        13        13  DOPC      POLO           22.8230963602       32.1952291423       11.9540447761  HEAD      13              0.0000000000
        14        14  DOPC      POLO          -21.3268556377        0.3589272427       12.0728797545  HEAD      14              0.0000000000
        15        15  DOPC      POLO           31.9126830044      -24.3946034131       11.9631673755  HEAD      15              0.0000000000
        16        16  DOPC      POLO           -0.0074208972       11.0917459920       11.9948387847  HEAD      16              0.0000000000
        17        17  DOPC      POLO           -0.9830230867       33.9789297522       11.9654383857  HEAD      17              0.0000000000
        18        18  DOPC      POLO           14.2171271233       29.9125212088       11.8584544350  HEAD      18              0.0000000000
        19        19  DOPC      POLO           21.1869722397       23.3320025126       11.9882853158  HEAD      19              0.0000000000
        20        20  DOPC      POLO          -26.0647400074       15.5880051363       12.1662229011  HEAD      20              0.0000000000
        21        21  DOPC      POLO           33.5140474408       -6.6523273002       11.9032192167  HEAD      21              0.0000000000
        22        22  DOPC      POLO            5.7415108687       27.2210284954       11.9551070239  HEAD      22              0.0000000000
        23        23  DOPC      POLO           16.0743032203      -31.5720805422       11.9192758591  HEAD      23              0.0000000000
        24        24  DOPC      POLO           -9.3593830847       32.1363456974       11.8706464937  HEAD      24              0.0000000000
        25        25  DOPC      POLO          -16.4647017123      -32.4051542691       12.0483427833  HEAD      25              0.0000000000
        26        26  DOPC      POLO           16.8038156564      -12.0581496620       11.9534426447  HEAD      26              0.0000000000
        27        27  DOPC      POLO           25.3170703594      -10.2449693244       11.8793499287  HEAD      27              0.0000000000
        28        28  DOPC      POLO          -18.9325449991        9.2384707886       12.0571773092  HEAD      28              0.0000000000
        29        29  DOPC      POLO          -13.1097456386        1.8266141140       12.1127415328  HEAD      29              0.0000000000
        30        30  DOPC      POLO           -7.5887911919      -29.7417613508       11.9287842164  HEAD      30              0.0000000000
        31        31  DOPC      POLO           -9.6651199686       -6.0757170087       12.1728976550  HEAD      31              0.0000000000
        32        32  DOPC      POLO          -19.9276768866       -8.3822941551       12.1021602807  HEAD      32              0.0000000000
        33        33  DOPC      POLO           24.1917622618      -28.3459086131       11.8873724389  HEAD      33              0.0000000000
        34        34  DOPC      POLO            1.9041885228      -19.3224719181       11.9408881861  HEAD      34              0.0000000000
        35        35  DOPC      POLO          -25.4744288648       24.6451734209       12.0813475384  HEAD      35              0.0000000000
        36        36  DOPC      POLO           12.6249454604       21.2636324066       11.9640000780  HEAD      36              0.0000000000
        37        37  DOPC      POLO           -2.7801032221       25.5433516209       11.9652151936  HEAD      37              0.0000000000
        38        38  DOPC      POLO            8.8398534556      -25.9136484813       11.9480935059  HEAD      38              0.0000000000
        39        39  DOPC      POLO            3.6409239821       18.9651836225       12.1340486648  HEAD      39              0.0000000000
        40        40  DOPC      POLO            7.4407378626      -34.4739210399       12.0430261027  HEAD      40              0.0000000000
        41        41  DOPC      POLO           -9.9445651699       10.2655675477       11.9926202835  HEAD      41              0.0000000000
        42        42  DOPC      POLO           17.5830012330      -22.9719710183       12.0244877023  HEAD      42              0.0000000000
        43        43  DOPC      POLO           28.0642851346        8.3052133274       12.1705262757  HEAD      43              0.0000000000
        44        44  DOPC      POLO           18.4704414148       -3.1876273800       12.0072161861  HEAD      44              0.0000000000
        45        45  DOPC      POLO           -6.7622036246      -20.8905381112       12.0086548092  HEAD      45              0.0000000000
        46        46  DOPC      POLO           10.0246306728       12.7596099257       11.9848918703  HEAD      46              0.0000000000
        47        47  DOPC      POLO           30.6177138185      -34.1178267326       11.9371359249  HEAD      47              0.0000000000
        48        48  DOPC      POLO          -33.9002515077       21.0931941752       12.0363339023  HEAD      48              0.0000000000
        49        49  DOPC      POLO          -29.8581474371      -21.2779236173       11.9702454609  HEAD      49              0.0000000000
        50        50  DOPC      POLO            4.9383045054      -11.5598300472       12.0277260364  HEAD      50              0.0000000000
        51        51  DOPC      POLO           10.0146009744       -4.4420898562       12.0247423163  HEAD      51              0.0000000000
        52        52  DOPC      POLO           24.8196327588      -18.9102713493       11.9621444542  HEAD      52              0.0000000000
        53        53  DOPC      POLO          -32.3722926241       30.4168485106       11.9733359212  HEAD      53              0.0000000000
        54        54  DOPC      POLO          -21.3999025346      -17.3802164120       12.0283728277  HEAD      54              0.0000000000
        55        55  DOPC      POLO          -13.1746691775      -14.5760362610       12.1255041121  HEAD      55              0.0000000000
        56        56  DOPC      POLO           10.5131546831      -17.7225569764       12.0019093237  HEAD      56              0.0000000000
        57        57  DOPC      POLO          -34.4377236232       12.0938442146       12.0669847501  HEAD      57              0.0000000000
        58        58  DOPC      POLO           -5.4948849355       17.4516687498       12.0747176815  HEAD      58              0.0000000000
        59        59  DOPC      POLO          -23.2462867467      -26.6863988398       12.1586466171  HEAD      59              0.0000000000
        60        60  DOPC      POLO           26.8196356579       -0.9468743578       11.9414368502  HEAD      60              0.0000000000
        61        61  DOPC      POLO          -29.0406795756       -3.0027156715       11.9999459567  HEAD      61              0.0000000000
        62        62  DOPC      POLO          -28.9098712007      -12.0544333805       12.0534826476  HEAD      62              0.0000000000
        63        63  DOPC      POLO           20.3932515682        5.5110129707       12.0427367369  HEAD      63              0.0000000000
        64        64  DOPC      POLO           33.2061669930      -15.7691484372       12.0941837789  HEAD      64              0.0000000000
        65        65  DOPC      POLO           34.7361783169        2.8163428318       12.0277156406  HEAD      65              0.0000000000
        66        66  DOPC      POLO          -17.6303285618       17.9953916399       11.9749733052  HEAD      66              0.0000000000
        67        67  DOPC      POLO          -15.4548779695       12.4077971227      -12.0115870624  HEAD      67              0.0000000000
        68        68  DOPC      POLO           19.1639541283       -9.1919451744      -11.9343389971  HEAD      68              0.0000000000
        69        69  DOPC      POLO          -29.1669260367       -0.5507155376      -11.9302211828  HEAD      69              0.0000000000
        70        70  DOPC      POLO          -26.1296372534       33.0529282852      -11.9029686666  HEAD      70              0.0000000000
        71        71  DOPC      POLO           24.8985588973        5.8796979090      -12.0650244287  HEAD      71              0.0000000000
        72        72  DOPC      POLO           11.4975881465       -5.3790638786      -12.0149467262  HEAD      72              0.0000000000
        73        73  DOPC      POLO          -24.6792796629       23.9065046973      -11.9944609337  HEAD      73              0.0000000000
        74        74  DOPC      POLO           -7.1386046458       10.0684274813      -12.0691340977  HEAD      74              0.0000000000
        75        75  DOPC      POLO          -27.5464334376      -18.9805070603      -12.1544432770  HEAD      75              0.0000000000
        76        76  DOPC      POLO          -11.5923092492        2.1146128214      -12.2181756289  HEAD      76              0.0000000000
        77        77  DOPC      POLO          -12.6232264206      -16.7863912286      -12.0952821958  HEAD      77              0.0000000000
        78        78  DOPC      POLO           15.2015217095       17.8085035999      -12.0850483445  HEAD      78              0.0000000000
        79        79  DOPC      POLO           19.3622569733      -18.4281974970      -12.1338749340  HEAD      79              0.0000000000
        80        80  DOPC      POLO          -18.6232532442      -31.2208339852      -11.9189557239  HEAD      80              0.0000000000
        81        81  DOPC      POLO           26.0490478743       -2.9953649450      -12.0369727250  HEAD      81              0.0000000000
        82        82  DOPC      POLO            8.1499811527       12.2215939705      -11.9109503126  HEAD      82              0.0000000000
        83        83  DOPC      POLO            6.0006010711       30.8873457163      -11.9322744835  HEAD      83              0.0000000000
        84        84  DOPC      POLO           29.2826317550       29.9689918340      -12.0018520030  HEAD      84              0.0000000000
        85        85  DOPC      POLO            2.8810491784      -12.8689789278      -12.0745035942  HEAD      85              0.0000000000
        86        86  DOPC      POLO           11.4049404689      -14.5948412570      -11.9608606351  HEAD      86              0.0000000000
        87        87  DOPC      POLO           30.1200105079       20.8766203739      -11.9312518478  HEAD      87              0.0000000000
        88        88  DOPC      POLO           28.3357052664      -30.6031251956      -12.0071696632  HEAD      88              0.0000000000
        89        89  DOPC      POLO          -20.3691513475      -13.1507075220      -12.0988238813  HEAD      89              0.0000000000
        90        90  DOPC      POLO          -20.8864909351       -3.4147187376      -11.8537404961  HEAD      90              0.0000000000
        91        91  DOPC      POLO          -21.5239210318        5.5263550945      -11.9177355529  HEAD      91              0.0000000000
        92        92  DOPC      POLO            7.3200955241       21.9100767465      -11.9708666795  HEAD      92              0.0000000000
        93        93  DOPC      POLO           14.0325548772       27.4409254464      -11.9991238462  HEAD      93              0.0000000000
        94        94  DOPC      POLO            4.9913825514      -30.0321564279      -12.0617013846  HEAD      94              0.0000000000
        95        95  DOPC      POLO           -9.5177720337       27.3567144237      -11.8601641850  HEAD      95              0.0000000000
        96        96  DOPC      POLO           33.9369640577       -6.4902150429      -12.0532541492  HEAD      96              0.0000000000
        97        97  DOPC      POLO           20.3414817164      -27.4017477584      -11.8402913622  HEAD      97              0.0000000000
        98        98  DOPC      POLO           33.0294712093        2.4809914564      -11.9705518561  HEAD      98              0.0000000000
        99        99  DOPC      POLO           34.6550058761      -15.7012165632      -12.0409241764  HEAD      99              0.0000000000
       100       100  DOPC      POLO          -26.8743489141      -27.9079135313      -12.2878859053  HEAD      100             0.0000000000
       101       101  DOPC      POLO           -8.1556981263       18.8389544478      -12.0074603464  HEAD      101             0.0000000000
       102       102  DOPC      POLO           -4.3693287012      -19.5855659195      -12.0356310632  HEAD      102             0.0000000000
       103       103  DOPC      POLO           31.6385206422       11.5194951066      -11.9603290328  HEAD      103             0.0000000000
       104       104  DOPC      POLO           18.0691674729        0.1575031657      -12.1778074641  HEAD      104             0.0000000000
       105       105  DOPC      POLO            0.4300560426       15.5890903519      -11.9177834181  HEAD      105             0.0000000000
       106       106  DOPC      POLO          -13.2990120768       -7.4797105240      -12.0570665578  HEAD      106             0.0000000000
       107       107  DOPC      POLO          -10.4522719302      -34.3373333881      -11.9817283840  HEAD      107             0.0000000000
       108       108  DOPC      POLO          -17.8075810437       29.9695156168      -11.9207057083  HEAD      108             0.0000000000
       109       109  DOPC      POLO          -28.2324083007       -9.6385037447      -11.9893692389  HEAD      109             0.0000000000
       110       110  DOPC      POLO           -5.6539996709      -11.3364995648      -12.0087574717  HEAD      110             0.0000000000
       111       111  DOPC      POLO           -1.0614061262       24.5878488436      -12.0076805659  HEAD      111             0.0000000000
       112       112  DOPC      POLO           22.0350514851       24.2475098768      -12.0499400721  HEAD      112             0.0000000000
       113       113  DOPC      POLO          -23.6618751265       14.9768768051      -12.1103776621  HEAD      113             0.0000000000
       114       114  DOPC      POLO          -31.7976930509       18.0599108454      -12.0576969143  HEAD      114             0.0000000000
       115       115  DOPC      POLO           12.2770150800      -23.9225531811      -12.0944540130  HEAD      115             0.0000000000
       116       116  DOPC      POLO          -34.5875185666      -24.9363425646      -11.8803423816  HEAD      116             0.0000000000
       117       117  DOPC      POLO           16.4611956827        8.8114515898      -11.9394740629  HEAD      117             0.0000000000
       118       118  DOPC      POLO           27.3973619447      -21.4939120199      -11.9468824233  HEAD      118             0.0000000000
       119       119  DOPC      POLO          -32.8958824031       26.8552262247      -12.0143497234  HEAD      119             0.0000000000
       120       120  DOPC      POLO           -2.2868944661       33.3365745012      -11.9325411236  HEAD      120             0.0000000000
       121       121  DOPC      POLO           21.2442623187       33.3498802867      -11.9909901054  HEAD      121             0.0000000000
       122       122  DOPC      POLO          -11.3398039363      -25.5836183828      -11.9863932267  HEAD      122             0.0000000000
       123       123  DOPC      POLO            9.7539685821        3.6157579746      -12.1458565849  HEAD      123             0.0000000000
       124       124  DOPC      POLO          -19.4462478907      -22.3087409165      -12.0036866312  HEAD      124             0.0000000000
       125       125  DOPC      POLO           27.0500232239      -12.1067036573      -12.0114274463  HEAD      125             0.0000000000
       126       126  DOPC      POLO          -30.2081850208        8.6703922639      -12.0636949197  HEAD      126             0.0000000000
       127       127  DOPC      POLO            4.0932547103      -21.4137276468      -11.9563987623  HEAD      127             0.0000000000
       128       128  DOPC      POLO          -34.0782270857      -34.2270076946      -12.0191294354  HEAD      128             0.0000000000
       129       129  DOPC      POLO           -3.1844383867      -28.1775252017      -12.0060246897  HEAD      129             0.0000000000
       130       130  DOPC      POLO           13.1646769406      -33.2544285088      -11.9953043703  HEAD      130             0.0000000000
       131       131  DOPC      POLO           23.4439919919       14.9098642946      -11.8836386396  HEAD      131             0.0000000000
       132       132  DOPC      POLO          -16.8962649228       20.9486467120      -12.0462018428  HEAD      132             0.0000000000
