* GENERATED BY CHARMM-GUI (HTTP://WWW.CHARMM-GUI.ORG) V3.7 ON JUL, 07. 2026. JOB
* GENERATES ION CONFORMATION USING MONTE-CARLO SIMULATION
*  DATE:     7/ 7/26      9:44:12      CREATED BY USER: charmm-gui
*
       450  EXT
         1         1  POT       POT            26.0251625902       24.5571645880       33.5228204839  IONS      1               1.0000000000
         2         2  POT       POT            -2.8123982400       30.4560043000       29.4232932000  IONS      2               1.0000000000
         3         3  POT       POT            -2.0559434000      -16.9584921000       38.8442963000  IONS      3               1.0000000000
         4         4  POT       POT           -13.4767892000      -18.3781040000      -29.6694944000  IONS      4               1.0000000000
         5         5  POT       POT            14.8271458000       11.6927136000      -37.4630080000  IONS      5               1.0000000000
         6         6  POT       POT             2.0156253000      -18.5394687000       32.8055304000  IONS      6               1.0000000000
         7         7  POT       POT            21.4165759000      -16.8946217000      -32.5632709000  IONS      7               1.0000000000
         8         8  POT       POT             9.5181378500       32.1883973000      -23.5130471000  IONS      8               1.0000000000
         9         9  POT       POT            23.5514028000        5.9061229300      -36.8763580000  IONS      9               1.0000000000
        10        10  POT       POT             4.7727269500      -11.2897071000       30.0118515000  IONS      10              1.0000000000
        11        11  POT       POT             0.8382498876      -30.4340791774      -32.7064045040  IONS      11              1.0000000000
        12        12  POT       POT            -6.6952917200       21.2726839000      -40.3398159000  IONS      12              1.0000000000
        13        13  POT       POT            34.9750166000       -4.4158138500       32.1652478000  IONS      13              1.0000000000
        14        14  POT       POT             9.3381612500        5.7500564700      -31.3908316000  IONS      14              1.0000000000
        15        15  POT       POT            33.6343793000      -29.9915299000       24.4426015000  IONS      15              1.0000000000
        16        16  POT       POT           -27.0513668000       -1.8380644900       27.0468412000  IONS      16              1.0000000000
        17        17  POT       POT           -13.5775622814       14.9962103146      -30.9208342677  IONS      17              1.0000000000
        18        18  POT       POT            20.6652825000      -33.8251836000       28.1237103000  IONS      18              1.0000000000
        19        19  POT       POT            33.3199846000       -5.0683959400      -39.3500062000  IONS      19              1.0000000000
        20        20  POT       POT            17.9061185000       19.3975438000      -24.1993269000  IONS      20              1.0000000000
        21        21  POT       POT           -12.2928702000       26.0056098000      -37.5779718000  IONS      21              1.0000000000
        22        22  POT       POT           -32.3293620000       14.6349052000       36.0005128000  IONS      22              1.0000000000
        23        23  POT       POT           -18.3589008000        9.4107418000      -30.0609365000  IONS      23              1.0000000000
        24        24  POT       POT             9.6294500700      -33.4028993000      -30.5275791000  IONS      24              1.0000000000
        25        25  POT       POT            22.5760827000      -34.8178471000      -29.1766370000  IONS      25              1.0000000000
        26        26  POT       POT            25.2675443000       28.3787296000      -40.6983875000  IONS      26              1.0000000000
        27        27  POT       POT            -7.7442499100      -19.6649404000      -37.8741006000  IONS      27              1.0000000000
        28        28  POT       POT            24.8410274000       22.2673569000      -36.9956859000  IONS      28              1.0000000000
        29        29  POT       POT            24.5574318000       17.3720568000      -24.8401973000  IONS      29              1.0000000000
        30        30  POT       POT             0.8308432240       24.0883423000       37.3650689000  IONS      30              1.0000000000
        31        31  POT       POT            26.5373021000        7.4008181400       30.8499438000  IONS      31              1.0000000000
        32        32  POT       POT            -5.7584585700      -22.2570304000       37.7566955000  IONS      32              1.0000000000
        33        33  POT       POT           -27.3515395000        0.5611719590      -38.6202615000  IONS      33              1.0000000000
        34        34  POT       POT            -5.5246812800       24.1525132000      -23.6311540000  IONS      34              1.0000000000
        35        35  POT       POT           -11.8952690043      -32.8892596992      -34.7984308090  IONS      35              1.0000000000
        36        36  POT       POT           -14.2930766941       -3.8292305998       37.5239538021  IONS      36              1.0000000000
        37        37  POT       POT            22.6821552000      -16.2259783000      -23.7552094000  IONS      37              1.0000000000
        38        38  POT       POT           -11.7195098000      -18.3971894000      -42.3668988000  IONS      38              1.0000000000
        39        39  POT       POT           -12.8198445000      -29.2893643000      -29.0963452000  IONS      39              1.0000000000
        40        40  POT       POT            -1.0604635800        8.8174428100      -24.6774218000  IONS      40              1.0000000000
        41        41  POT       POT            -9.9924344100       10.4827333000       36.9711541000  IONS      41              1.0000000000
        42        42  POT       POT             2.4769691700        0.0746696826      -35.7908214000  IONS      42              1.0000000000
        43        43  POT       POT             7.8027538000       17.0972579000      -27.3605042000  IONS      43              1.0000000000
        44        44  POT       POT            19.7104303000      -27.0924047000      -26.6551933000  IONS      44              1.0000000000
        45        45  POT       POT           -31.0839904000       34.0432514000      -35.8208249000  IONS      45              1.0000000000
        46        46  POT       POT            -2.2847622947       -4.9721302030      -16.1095199061  IONS      46              1.0000000000
        47        47  POT       POT           -21.2935558000      -22.7774166000       25.9916732000  IONS      47              1.0000000000
        48        48  POT       POT             7.9926768500       19.4600339000      -41.3717469000  IONS      48              1.0000000000
        49        49  POT       POT            30.0856253000      -12.4734838000       39.3479528000  IONS      49              1.0000000000
        50        50  POT       POT           -27.5266645000      -32.4093101000      -25.7801894000  IONS      50              1.0000000000
        51        51  POT       POT            -0.7329299131       -3.0177669933       24.6588181998  IONS      51              1.0000000000
        52        52  POT       POT             6.4569090966      -26.3267749649       35.1302658794  IONS      52              1.0000000000
        53        53  POT       POT            25.0453855000       24.1116287990       26.3116269099  IONS      53              1.0000000000
        54        54  POT       POT            -0.2407296908      -25.6730661046      -25.5580361724  IONS      54              1.0000000000
        55        55  POT       POT             2.3430140006       19.5836309093       33.8257074036  IONS      55              1.0000000000
        56        56  POT       POT            22.8093606368      -30.0182442115       28.1096424108  IONS      56              1.0000000000
        57        57  POT       POT             7.3892771382      -14.9340402011      -31.5920386917  IONS      57              1.0000000000
        58        58  POT       POT           -25.0038425000      -34.9776063000       42.3293399000  IONS      58              1.0000000000
        59        59  POT       POT             2.6708978200       16.1458100000       25.1992356000  IONS      59              1.0000000000
        60        60  POT       POT            29.6100943000       27.7270242000       40.2411296000  IONS      60              1.0000000000
        61        61  POT       POT           -24.7210649000       11.1107539000       37.6841997000  IONS      61              1.0000000000
        62        62  POT       POT            18.6775097000       25.6438366000      -31.5563630000  IONS      62              1.0000000000
        63        63  POT       POT           -28.5419913000      -28.6439791000      -30.7039549000  IONS      63              1.0000000000
        64        64  POT       POT           -34.3436577000      -30.0338640000      -26.3871453000  IONS      64              1.0000000000
        65        65  POT       POT            21.7338350000      -27.5968668000      -32.9854878000  IONS      65              1.0000000000
        66        66  POT       POT            16.6532171000       10.1124403000      -28.2806639000  IONS      66              1.0000000000
        67        67  POT       POT           -19.9894316000      -19.1576462000      -42.1878838000  IONS      67              1.0000000000
        68        68  POT       POT             8.1920036100       -6.5806104800      -26.8419185000  IONS      68              1.0000000000
        69        69  POT       POT           -10.9561595000       23.9768632000      -31.8550821000  IONS      69              1.0000000000
        70        70  POT       POT            -0.4555963502       21.2170336698       23.1165435263  IONS      70              1.0000000000
        71        71  POT       POT           -22.0566600000      -16.2388388000       39.9339351000  IONS      71              1.0000000000
        72        72  POT       POT            17.9263590000      -34.5065717000       40.4131839000  IONS      72              1.0000000000
        73        73  POT       POT           -25.9690833000       -9.5065867300       33.5364481000  IONS      73              1.0000000000
        74        74  POT       POT             3.6699641300      -15.5746529000      -28.2486092000  IONS      74              1.0000000000
        75        75  POT       POT            23.2691765000       -7.4196869300       25.2690655000  IONS      75              1.0000000000
        76        76  POT       POT           -33.9538845000        7.6793662900      -37.3823403000  IONS      76              1.0000000000
        77        77  POT       POT            13.8374519000      -24.6952815000       30.9229289000  IONS      77              1.0000000000
        78        78  POT       POT           -20.4575355000      -34.5668258000      -25.6105315000  IONS      78              1.0000000000
        79        79  POT       POT           -26.5855996000      -15.0246651428       25.6588817209  IONS      79              1.0000000000
        80        80  POT       POT           -25.1990146000      -14.9863181000      -41.9020991000  IONS      80              1.0000000000
        81        81  POT       POT            27.7627912000        7.3760381000      -31.5530073000  IONS      81              1.0000000000
        82        82  POT       POT            24.1322984000        9.4285813400      -32.5444115000  IONS      82              1.0000000000
        83        83  POT       POT            34.9189568680       26.1729040287      -29.1948996520  IONS      83              1.0000000000
        84        84  POT       POT            25.5060912071      -24.8956884816       36.3228033541  IONS      84              1.0000000000
        85        85  POT       POT            20.9725025000       -5.8675982900       39.2192951000  IONS      85              1.0000000000
        86        86  POT       POT           -28.2412948000       29.6895271000       41.4297066000  IONS      86              1.0000000000
        87        87  POT       POT            -8.6653787900      -14.4931049000       39.9185827000  IONS      87              1.0000000000
        88        88  POT       POT             8.6697962000      -19.1494164000       30.0994362000  IONS      88              1.0000000000
        89        89  POT       POT            14.8546895000      -11.1398288000      -35.1977235000  IONS      89              1.0000000000
        90        90  POT       POT            20.8092608000       -1.7407256400      -33.4644810000  IONS      90              1.0000000000
        91        91  POT       POT            -5.0103608754       11.5827930193       36.5961910978  IONS      91              1.0000000000
        92        92  POT       POT           -22.3915817000       31.5232119000      -30.6729579000  IONS      92              1.0000000000
        93        93  POT       POT             3.5376421000      -14.6704359000      -35.0829886000  IONS      93              1.0000000000
        94        94  POT       POT            20.1260794797       -0.3898456616       32.2243319345  IONS      94              1.0000000000
        95        95  POT       POT           -24.9328333000      -17.7809103000      -29.5598247000  IONS      95              1.0000000000
        96        96  POT       POT           -31.9091775000      -24.7746261000      -42.1212445000  IONS      96              1.0000000000
        97        97  POT       POT            27.2785940000       31.3319929000       33.8654826000  IONS      97              1.0000000000
        98        98  POT       POT            21.3179616000       29.9626899000       35.0211845000  IONS      98              1.0000000000
        99        99  POT       POT            -1.3018273600       11.6628972000      -29.9380052000  IONS      99              1.0000000000
       100       100  POT       POT             5.1241693500       10.9876648000      -30.3076431000  IONS      100             1.0000000000
       101       101  POT       POT            -8.5287518400      -29.8689451000      -23.9650808000  IONS      101             1.0000000000
       102       102  POT       POT             1.0641143200       15.6633355000       29.5488688000  IONS      102             1.0000000000
       103       103  POT       POT             4.5781022500       26.4295028000      -32.8217813000  IONS      103             1.0000000000
       104       104  POT       POT            27.4355973000       -7.6874906100      -28.0566656000  IONS      104             1.0000000000
       105       105  POT       POT             9.6215101400       23.8332295000       36.8852385000  IONS      105             1.0000000000
       106       106  POT       POT            30.5169892000      -32.3695598000      -32.7481594000  IONS      106             1.0000000000
       107       107  POT       POT            24.0619898385      -31.6860319870      -26.2852154925  IONS      107             1.0000000000
       108       108  POT       POT            -4.2878428700      -19.3936648000      -29.3121117000  IONS      108             1.0000000000
       109       109  POT       POT            -2.0870423127       26.6613617995       42.4303598096  IONS      109             1.0000000000
       110       110  POT       POT            10.5608685000      -12.2368526000       26.7856974000  IONS      110             1.0000000000
       111       111  POT       POT            18.8889234000        1.0133462200      -25.5420199000  IONS      111             1.0000000000
       112       112  POT       POT           -22.5418774000       -9.2950067000       42.0455244000  IONS      112             1.0000000000
       113       113  POT       POT            32.1888479000       10.4986819000       27.9114786000  IONS      113             1.0000000000
       114       114  POT       POT            20.5315391911      -23.9353606177       33.7488121027  IONS      114             1.0000000000
       115       115  POT       POT            26.6607149000       17.8215496000       29.5790037000  IONS      115             1.0000000000
       116       116  POT       POT            20.9681233000        1.5289646700       38.5471272000  IONS      116             1.0000000000
       117       117  POT       POT            10.3848905000       31.4964864000       27.1342069000  IONS      117             1.0000000000
       118       118  POT       POT             9.9522980100       -1.0531760700      -36.2900448000  IONS      118             1.0000000000
       119       119  POT       POT            32.5279102000       -6.4509166700       27.0276251000  IONS      119             1.0000000000
       120       120  POT       POT           -25.9628711441       23.1898368889      -39.0331130949  IONS      120             1.0000000000
       121       121  POT       POT           -16.6732786000      -15.9581435000       34.5540719000  IONS      121             1.0000000000
       122       122  POT       POT             0.9262555863       17.2234294000      -40.6877323011  IONS      122             1.0000000000
       123       123  POT       POT            31.7644691000       12.0130335000       31.7907973000  IONS      123             1.0000000000
       124       124  POT       POT             6.0144319216      -34.6372087662      -26.6755372109  IONS      124             1.0000000000
       125       125  POT       POT            32.3615803000      -34.6532665000      -38.3611120000  IONS      125             1.0000000000
       126       126  POT       POT            23.3520086000       -8.3974188600      -32.0166174000  IONS      126             1.0000000000
       127       127  POT       POT           -18.7173920000       14.3134429000       37.8724312000  IONS      127             1.0000000000
       128       128  POT       POT           -16.5455548000       17.1769863000      -22.9062084000  IONS      128             1.0000000000
       129       129  POT       POT            16.8273090000       33.9317613000      -37.8938996000  IONS      129             1.0000000000
       130       130  POT       POT           -31.6520581000      -35.0092149000      -37.8108880000  IONS      130             1.0000000000
       131       131  POT       POT           -14.7392914000      -25.3855693000       25.9016259000  IONS      131             1.0000000000
       132       132  POT       POT            19.1948197000      -31.5390621000      -26.7561459000  IONS      132             1.0000000000
       133       133  POT       POT             8.8842629977        0.5207698974       35.7850849158  IONS      133             1.0000000000
       134       134  POT       POT           -16.8299586000      -28.3651276000      -27.4724243000  IONS      134             1.0000000000
       135       135  POT       POT            21.0527459215        1.9379717751      -29.6823524842  IONS      135             1.0000000000
       136       136  POT       POT           -27.4202201000       -1.5955537300       38.9629157000  IONS      136             1.0000000000
       137       137  POT       POT            -0.6914902160       34.3211135000       30.0409196000  IONS      137             1.0000000000
       138       138  POT       POT           -34.7290927000       -6.3406365500      -28.1565909000  IONS      138             1.0000000000
       139       139  POT       POT            12.5814919000      -22.4040271000       38.2788946000  IONS      139             1.0000000000
       140       140  POT       POT             6.4295222531      -11.1435559696      -35.8459598749  IONS      140             1.0000000000
       141       141  POT       POT           -21.9827157000       18.9898215000       27.9716349000  IONS      141             1.0000000000
       142       142  POT       POT           -10.6542269000        5.0404490700      -37.3186729000  IONS      142             1.0000000000
       143       143  POT       POT           -30.4503947288       22.8028020967      -36.6229224922  IONS      143             1.0000000000
       144       144  POT       POT             4.9196373807      -21.1236482993       35.2638218749  IONS      144             1.0000000000
       145       145  POT       POT             7.0109400200      -30.9443128000       32.9694081000  IONS      145             1.0000000000
       146       146  POT       POT            -5.2892838100       17.0108024000      -33.5212464000  IONS      146             1.0000000000
       147       147  POT       POT           -13.1226359103       20.9462423943       37.1303376382  IONS      147             1.0000000000
       148       148  POT       POT           -15.1123136000      -10.0638826000       36.1635106000  IONS      148             1.0000000000
       149       149  POT       POT             3.9372085200        4.9359794400      -29.0978672000  IONS      149             1.0000000000
       150       150  POT       POT           -16.2285248000       21.9038056000      -32.9082164000  IONS      150             1.0000000000
       151       151  POT       POT            18.3570472000       33.4267816000       39.2286688000  IONS      151             1.0000000000
       152       152  POT       POT            33.7246081000      -17.3408123000       31.8437870000  IONS      152             1.0000000000
       153       153  POT       POT            13.4249642715      -31.1177121401      -24.0447449869  IONS      153             1.0000000000
       154       154  POT       POT           -26.6705884000      -25.5125993000       23.6046975000  IONS      154             1.0000000000
       155       155  POT       POT            23.0069324000      -20.4381401000       35.0369322000  IONS      155             1.0000000000
       156       156  POT       POT            17.7214719000       20.2457592000       25.9689459000  IONS      156             1.0000000000
       157       157  POT       POT            -5.0315734327      -14.9868699792      -39.1148281667  IONS      157             1.0000000000
       158       158  POT       POT            12.5220766935        2.6586437619      -39.7396028054  IONS      158             1.0000000000
       159       159  POT       POT            -2.8919178200       20.0204085000       41.9436031000  IONS      159             1.0000000000
       160       160  POT       POT           -34.2893713001      -18.4718530000       24.7922621100  IONS      160             1.0000000000
       161       161  POT       POT            -9.3954593876       13.1681155915       40.7271509966  IONS      161             1.0000000000
       162       162  POT       POT            26.0016869879        6.5424749344      -41.6646586931  IONS      162             1.0000000000
       163       163  POT       POT            25.2138819000       -9.6796820200       28.2154477000  IONS      163             1.0000000000
       164       164  POT       POT            11.1775357000       10.7980584000      -32.7126597000  IONS      164             1.0000000000
       165       165  POT       POT             2.6057569600       27.8961013000      -23.7507808000  IONS      165             1.0000000000
       166       166  POT       POT           -25.1741071000       25.4996180000      -24.0585559000  IONS      166             1.0000000000
       167       167  POT       POT            23.0123767000       -5.3505613000       20.9478945000  IONS      167             1.0000000000
       168       168  POT       POT             2.1737285700      -15.2387244000       38.7378238000  IONS      168             1.0000000000
       169       169  POT       POT           -19.9100403000       33.6338342000      -24.2891159000  IONS      169             1.0000000000
       170       170  POT       POT             6.3412671000      -11.0840391000      -31.5693146000  IONS      170             1.0000000000
       171       171  POT       POT           -24.2870939000       25.2736560000      -42.3248534000  IONS      171             1.0000000000
       172       172  POT       POT            23.0879573000       -8.9276048900      -36.6887457000  IONS      172             1.0000000000
       173       173  POT       POT            13.5586121094       18.6264273030      -35.1610236018  IONS      173             1.0000000000
       174       174  POT       POT           -14.4894792000       16.0795123000       41.6993484000  IONS      174             1.0000000000
       175       175  POT       POT             8.4481824764       32.6004302986       39.4318582293  IONS      175             1.0000000000
       176       176  POT       POT            -8.9827477112       18.6026159244       38.1890494200  IONS      176             1.0000000000
       177       177  POT       POT           -22.7648095000       -2.8947985900      -25.8125263000  IONS      177             1.0000000000
       178       178  POT       POT             8.8577650182       23.1472537015       26.7041213232  IONS      178             1.0000000000
       179       179  POT       POT            29.6564551000      -28.9270476000      -25.9685872000  IONS      179             1.0000000000
       180       180  POT       POT            28.7667696000       -2.9361986000       35.5686994000  IONS      180             1.0000000000
       181       181  POT       POT            23.7235641000       11.2172365000       35.8231757000  IONS      181             1.0000000000
       182       182  POT       POT            -9.2549130003      -32.5700941989      -38.0350008019  IONS      182             1.0000000000
       183       183  POT       POT            -9.1394566133      -28.4716493055       31.8792938076  IONS      183             1.0000000000
       184       184  POT       POT            22.3018781000      -11.5517824000       31.0107499000  IONS      184             1.0000000000
       185       185  POT       POT            34.5601099000      -25.3621195000       25.5860067000  IONS      185             1.0000000000
       186       186  POT       POT            28.6962586000       -5.8334070300       23.1066819000  IONS      186             1.0000000000
       187       187  POT       POT            29.1095854000        0.5727643130       27.7009816000  IONS      187             1.0000000000
       188       188  POT       POT            -4.7205131000       -2.2370592100      -18.0099216000  IONS      188             1.0000000000
       189       189  POT       POT            -4.5098282799      -19.0624423819      -42.2188541798  IONS      189             1.0000000000
       190       190  POT       POT             6.2587805600       25.5761897000       28.9214313000  IONS      190             1.0000000000
       191       191  POT       POT           -17.4632656000       34.9459011000       24.3868517000  IONS      191             1.0000000000
       192       192  POT       POT             7.3506164200      -19.9443663000       41.8153107000  IONS      192             1.0000000000
       193       193  POT       POT           -24.8953459000      -26.3947814000      -32.2312974000  IONS      193             1.0000000000
       194       194  POT       POT            17.3461788000      -12.9731043000       31.3119930000  IONS      194             1.0000000000
       195       195  POT       POT           -34.8659227000      -11.7527564000       37.1668554000  IONS      195             1.0000000000
       196       196  POT       POT             5.0034971000       -1.8040775300      -19.6919434000  IONS      196             1.0000000000
       197       197  POT       POT            27.5036005000       -2.7882328200       31.4494644000  IONS      197             1.0000000000
       198       198  POT       POT            20.5289038000       30.5679498000      -35.3545278000  IONS      198             1.0000000000
       199       199  POT       POT           -32.8928407133       22.9866540038      -24.7935195734  IONS      199             1.0000000000
       200       200  POT       POT            12.2883982081      -26.7570783942       25.2968220996  IONS      200             1.0000000000
       201       201  POT       POT             3.1638085900        3.4905952900       25.8789784000  IONS      201             1.0000000000
       202       202  POT       POT            -0.7687533390       -6.1381375600      -27.8876609000  IONS      202             1.0000000000
       203       203  POT       POT            10.2623654271       -1.6728922280       28.5000888597  IONS      203             1.0000000000
       204       204  POT       POT           -13.8209698000        4.3751247500       38.9102508000  IONS      204             1.0000000000
       205       205  POT       POT             0.5381585100       27.8268402000      -35.1748128000  IONS      205             1.0000000000
       206       206  POT       POT           -30.0200763873        9.3917437290      -40.6948960629  IONS      206             1.0000000000
       207       207  POT       POT            -0.7529235360       24.9397651000       32.6465633000  IONS      207             1.0000000000
       208       208  POT       POT            19.9173754000       13.6129086000       35.3331535000  IONS      208             1.0000000000
       209       209  POT       POT            18.2112195000       22.4209580000       31.0354732000  IONS      209             1.0000000000
       210       210  POT       POT             4.8430284675       25.8047521630       38.8242009867  IONS      210             1.0000000000
       211       211  POT       POT            22.8456770000      -31.8427143000      -18.2969751000  IONS      211             1.0000000000
       212       212  POT       POT            25.8156961240        0.9356877547      -34.7188704007  IONS      212             1.0000000000
       213       213  POT       POT             0.5155557480      -34.6901415000       29.6033325000  IONS      213             1.0000000000
       214       214  POT       POT           -16.0344887000      -21.4339260000       33.3604197000  IONS      214             1.0000000000
       215       215  POT       POT             8.9994602900       19.5958064000       24.8302156000  IONS      215             1.0000000000
       216       216  POT       POT            15.5679928000        6.1747534500      -31.4279980000  IONS      216             1.0000000000
       217       217  POT       POT            34.0689947000      -14.7522533000      -15.1621960000  IONS      217             1.0000000000
       218       218  POT       POT            16.5103839000       32.3797626000      -24.4856800000  IONS      218             1.0000000000
       219       219  POT       POT           -21.7431832000       -3.4598369300      -31.9438571000  IONS      219             1.0000000000
       220       220  POT       POT           -16.6365234000       17.6094325000      -31.0367821000  IONS      220             1.0000000000
       221       221  POT       POT           -32.3405795000       21.6570832000       33.9495528000  IONS      221             1.0000000000
       222       222  POT       POT           -34.7996671000        4.0486741200      -32.7634022000  IONS      222             1.0000000000
       223       223  POT       POT            21.8197651000       32.2891070000      -27.4570930000  IONS      223             1.0000000000
       224       224  POT       POT             5.0754609300      -34.8214109000       39.3000978000  IONS      224             1.0000000000
       225       225  POT       POT            17.0665418000      -25.2687274000      -29.6327356000  IONS      225             1.0000000000
       226       226  CLA       CLA            27.1680370000       31.2587397000       28.8471966000  IONS      226            -1.0000000000
       227       227  CLA       CLA           -25.5419734000      -24.4911468000       39.0702631000  IONS      227            -1.0000000000
       228       228  CLA       CLA            19.1900057000      -12.2013047000      -37.4756805000  IONS      228            -1.0000000000
       229       229  CLA       CLA             3.1455008500       23.9148959000      -40.7498888000  IONS      229            -1.0000000000
       230       230  CLA       CLA            24.0156738000       -0.9007898020       29.7787375000  IONS      230            -1.0000000000
       231       231  CLA       CLA            21.6136355064      -26.4736472951      -40.4248020007  IONS      231            -1.0000000000
       232       232  CLA       CLA            13.9739616000       21.0355986000       41.4720913000  IONS      232            -1.0000000000
       233       233  CLA       CLA           -14.6171421000       -6.1761057900       29.7923807000  IONS      233            -1.0000000000
       234       234  CLA       CLA           -27.0756484000      -26.0559026000       31.9904141000  IONS      234            -1.0000000000
       235       235  CLA       CLA            -1.9144180200       -0.4555654410       18.7567044000  IONS      235            -1.0000000000
       236       236  CLA       CLA            28.3849923000       23.4956705000       37.2417643000  IONS      236            -1.0000000000
       237       237  CLA       CLA           -11.9641580000      -17.9137546000       34.0814535000  IONS      237            -1.0000000000
       238       238  CLA       CLA            11.5049339000      -21.6974194000      -24.6200835000  IONS      238            -1.0000000000
       239       239  CLA       CLA            31.5144219020        9.6435526865      -25.4687750909  IONS      239            -1.0000000000
       240       240  CLA       CLA            24.9221832000       34.8643293000       35.9748359000  IONS      240            -1.0000000000
       241       241  CLA       CLA            28.1404868000      -17.4383516000      -24.7741592000  IONS      241            -1.0000000000
       242       242  CLA       CLA           -29.8528145000      -27.1098613000       29.1318202000  IONS      242            -1.0000000000
       243       243  CLA       CLA           -12.5887082986       14.1982997991       33.2602375975  IONS      243            -1.0000000000
       244       244  CLA       CLA           -27.9816354812        6.3918408764       33.7847893224  IONS      244            -1.0000000000
       245       245  CLA       CLA             1.0489670300       32.3587101000       35.2061872000  IONS      245            -1.0000000000
       246       246  CLA       CLA            -7.1571139600       32.9596364000       33.9087681000  IONS      246            -1.0000000000
       247       247  CLA       CLA           -20.4042567921       17.6254658091      -41.2245491160  IONS      247            -1.0000000000
       248       248  CLA       CLA            -5.1833686500      -33.2521238000       23.5798807000  IONS      248            -1.0000000000
       249       249  CLA       CLA           -16.0494129000       25.8318667000       26.6180295000  IONS      249            -1.0000000000
       250       250  CLA       CLA             1.9308159500        4.7744289500      -42.0819180000  IONS      250            -1.0000000000
       251       251  CLA       CLA           -26.7415460034       -9.5300739936       24.8023252209  IONS      251            -1.0000000000
       252       252  CLA       CLA           -18.8670251617      -11.4420881187      -32.7468754760  IONS      252            -1.0000000000
       253       253  CLA       CLA           -29.5703030406        7.8765957746      -33.1011279125  IONS      253            -1.0000000000
       254       254  CLA       CLA           -30.9097344092       -4.5449471444       34.3827347655  IONS      254            -1.0000000000
       255       255  CLA       CLA           -32.9758711000       20.9304319000       27.8750061000  IONS      255            -1.0000000000
       256       256  CLA       CLA           -26.0655620000       -9.9630396100       37.4373346000  IONS      256            -1.0000000000
       257       257  CLA       CLA            29.9057907000       19.4462964000      -24.1642830000  IONS      257            -1.0000000000
       258       258  CLA       CLA            27.4336199000      -10.4329652000      -41.8126503000  IONS      258            -1.0000000000
       259       259  CLA       CLA            -8.2838602874       -8.5778539175      -35.0223372253  IONS      259            -1.0000000000
       260       260  CLA       CLA           -28.2935932000       32.7710419000      -33.1848146000  IONS      260            -1.0000000000
       261       261  CLA       CLA           -32.4091917000        2.2132351200       33.1762259000  IONS      261            -1.0000000000
       262       262  CLA       CLA            26.8483897000       25.6811444000      -37.9634156000  IONS      262            -1.0000000000
       263       263  CLA       CLA            32.0830048000       34.4718231000      -32.3552933000  IONS      263            -1.0000000000
       264       264  CLA       CLA            24.3633755000        3.2088351400       40.1286221000  IONS      264            -1.0000000000
       265       265  CLA       CLA            -7.2572223600       -3.1534849000      -33.2634912000  IONS      265            -1.0000000000
       266       266  CLA       CLA           -22.8814776000        6.7197585600       25.0460695000  IONS      266            -1.0000000000
       267       267  CLA       CLA            27.0838488709        0.5156154285      -29.0414474969  IONS      267            -1.0000000000
       268       268  CLA       CLA           -19.2153730000       15.8467695000       29.9922668000  IONS      268            -1.0000000000
       269       269  CLA       CLA             0.9778710050       18.6534473000       38.8387531000  IONS      269            -1.0000000000
       270       270  CLA       CLA           -12.0328162000       31.5409076000       31.2659134000  IONS      270            -1.0000000000
       271       271  CLA       CLA            34.7091189885       21.9237157248      -39.0236694328  IONS      271            -1.0000000000
       272       272  CLA       CLA            -1.1882367200       19.0279515000       33.8182110000  IONS      272            -1.0000000000
       273       273  CLA       CLA             9.0467942237      -18.9587942842      -40.0336668883  IONS      273            -1.0000000000
       274       274  CLA       CLA            32.3872491000       15.9822619000      -31.1084134000  IONS      274            -1.0000000000
       275       275  CLA       CLA            12.2384309000       34.0394924000      -16.2318120000  IONS      275            -1.0000000000
       276       276  CLA       CLA            13.0707225000      -34.1978436000       27.3596404000  IONS      276            -1.0000000000
       277       277  CLA       CLA            21.9297405000      -10.9856660000       41.1091186000  IONS      277            -1.0000000000
       278       278  CLA       CLA            34.8592737000      -19.8411988000       34.8702693000  IONS      278            -1.0000000000
       279       279  CLA       CLA            34.6098472000       19.9746833000       32.9911968000  IONS      279            -1.0000000000
       280       280  CLA       CLA            -2.9224568839       18.0684245007      -24.0888864196  IONS      280            -1.0000000000
       281       281  CLA       CLA            21.0201755923      -25.7904603269       26.8559758013  IONS      281            -1.0000000000
       282       282  CLA       CLA            18.8228489636      -26.8839556841       22.3556895955  IONS      282            -1.0000000000
       283       283  CLA       CLA            14.9882259000      -17.1169914000       31.4768807000  IONS      283            -1.0000000000
       284       284  CLA       CLA            28.8698600961       15.1998061156      -32.2857173881  IONS      284            -1.0000000000
       285       285  CLA       CLA           -19.3408761000       20.6134659000       42.1672599000  IONS      285            -1.0000000000
       286       286  CLA       CLA            13.7367634154       15.2787294703      -41.1637534024  IONS      286            -1.0000000000
       287       287  CLA       CLA           -13.1611329000       15.9138992000      -38.0830900000  IONS      287            -1.0000000000
       288       288  CLA       CLA            26.3164157000       30.2839182000      -31.1582032000  IONS      288            -1.0000000000
       289       289  CLA       CLA            32.1926831000       12.3580017000       41.9287636000  IONS      289            -1.0000000000
       290       290  CLA       CLA           -25.5355714000        1.8575837400       25.1287189000  IONS      290            -1.0000000000
       291       291  CLA       CLA           -11.5367605640       32.5016124794      -29.0156282040  IONS      291            -1.0000000000
       292       292  CLA       CLA             1.4922343900      -22.9452633000      -30.4187998000  IONS      292            -1.0000000000
       293       293  CLA       CLA           -27.8022171000        5.3733706000      -24.3532975000  IONS      293            -1.0000000000
       294       294  CLA       CLA            21.6281200000       13.0026188000       26.8891796000  IONS      294            -1.0000000000
       295       295  CLA       CLA            -7.5734023217       24.7772355786      -42.2612642185  IONS      295            -1.0000000000
       296       296  CLA       CLA            33.1108557807       26.7112715909      -34.0025764145  IONS      296            -1.0000000000
       297       297  CLA       CLA           -12.3511903080      -19.0233675012       39.9788577058  IONS      297            -1.0000000000
       298       298  CLA       CLA           -30.2741923000       -2.3859292600       30.5176374000  IONS      298            -1.0000000000
       299       299  CLA       CLA             6.8141934195      -28.0620690359      -26.1050766139  IONS      299            -1.0000000000
       300       300  CLA       CLA            25.2276982000      -14.9509574000       22.2190290000  IONS      300            -1.0000000000
       301       301  CLA       CLA           -16.9347802000       -7.4725483600       42.2019930000  IONS      301            -1.0000000000
       302       302  CLA       CLA            12.7881397192       24.9384845954       24.7686161090  IONS      302            -1.0000000000
       303       303  CLA       CLA            -4.5576473606        2.6357240368      -33.9817303188  IONS      303            -1.0000000000
       304       304  CLA       CLA             1.9874363328       12.8446840717       34.7277856095  IONS      304            -1.0000000000
       305       305  CLA       CLA             3.7288549387       30.4473461264      -32.2178598888  IONS      305            -1.0000000000
       306       306  CLA       CLA           -34.3896584000       -7.2144608900       18.3246224000  IONS      306            -1.0000000000
       307       307  CLA       CLA            20.2374196000      -17.2665258000       23.3766452000  IONS      307            -1.0000000000
       308       308  CLA       CLA            23.1196280939       20.1811380571       31.8050836084  IONS      308            -1.0000000000
       309       309  CLA       CLA            30.9476420000       -4.9703376800       30.7849115000  IONS      309            -1.0000000000
       310       310  CLA       CLA             6.7450871647      -34.2606360996       27.9962855295  IONS      310            -1.0000000000
       311       311  CLA       CLA            -0.3516800740       34.6827880000      -37.7634648000  IONS      311            -1.0000000000
       312       312  CLA       CLA            31.0061119158        2.4937551172      -26.0963408045  IONS      312            -1.0000000000
       313       313  CLA       CLA            27.6681487000       21.3527218000       29.5869669000  IONS      313            -1.0000000000
       314       314  CLA       CLA            -4.5662785300       29.0344554000      -37.0513935000  IONS      314            -1.0000000000
       315       315  CLA       CLA            11.0151554000        6.1433558600       28.1654552000  IONS      315            -1.0000000000
       316       316  CLA       CLA             1.9794992700       -7.3435005900       38.0473651000  IONS      316            -1.0000000000
       317       317  CLA       CLA           -28.1867140947      -14.9824093156       35.1199410490  IONS      317            -1.0000000000
       318       318  CLA       CLA           -13.9012503000      -28.0449162000      -41.7651447000  IONS      318            -1.0000000000
       319       319  CLA       CLA            -1.1928611500      -23.1524622000      -41.5552707000  IONS      319            -1.0000000000
       320       320  CLA       CLA            -4.0931962900      -18.3065219000       24.8680852000  IONS      320            -1.0000000000
       321       321  CLA       CLA             4.7279974000        1.4422044200       37.9334120000  IONS      321            -1.0000000000
       322       322  CLA       CLA           -10.5798581000       25.4622927000       34.5391303000  IONS      322            -1.0000000000
       323       323  CLA       CLA            13.8472053286       27.1049948840      -33.9624100229  IONS      323            -1.0000000000
       324       324  CLA       CLA             5.7931114300       32.9988462000      -28.5506907000  IONS      324            -1.0000000000
       325       325  CLA       CLA            28.2541629998       11.7448245173       32.8305641961  IONS      325            -1.0000000000
       326       326  CLA       CLA           -20.4673839000      -34.0249537000      -39.4641348000  IONS      326            -1.0000000000
       327       327  CLA       CLA           -19.6847460000       32.4571128000       41.4490846000  IONS      327            -1.0000000000
       328       328  CLA       CLA           -23.5436554002       31.3442265398      -38.8795839302  IONS      328            -1.0000000000
       329       329  CLA       CLA             5.9499636108       14.9708497238       32.0666296866  IONS      329            -1.0000000000
       330       330  CLA       CLA             7.3491408867      -24.8141806903      -30.2481579748  IONS      330            -1.0000000000
       331       331  CLA       CLA           -15.3920183903      -10.6816949939       28.2998161164  IONS      331            -1.0000000000
       332       332  CLA       CLA            15.4824726811        7.3723152831       31.8668221808  IONS      332            -1.0000000000
       333       333  CLA       CLA            -1.3894190100      -30.8940604000      -26.7372882000  IONS      333            -1.0000000000
       334       334  CLA       CLA           -33.9600131000      -24.3351528000       26.1577664000  IONS      334            -1.0000000000
       335       335  CLA       CLA            34.3038531000      -13.8412449000      -30.4099586000  IONS      335            -1.0000000000
       336       336  CLA       CLA             5.1265435600      -21.2796579000       28.8081351000  IONS      336            -1.0000000000
       337       337  CLA       CLA           -23.0515056000        6.8462678000       42.2496135000  IONS      337            -1.0000000000
       338       338  CLA       CLA           -25.8999445000      -11.9143367000      -37.5323107000  IONS      338            -1.0000000000
       339       339  CLA       CLA            12.7444026000      -14.8300190000      -26.8006354000  IONS      339            -1.0000000000
       340       340  CLA       CLA            33.0432695000        2.9889556800      -32.8565985000  IONS      340            -1.0000000000
       341       341  CLA       CLA           -22.6607737775      -16.1989127972      -34.8153388402  IONS      341            -1.0000000000
       342       342  CLA       CLA           -23.5452435000       26.4228493000       34.8073920000  IONS      342            -1.0000000000
       343       343  CLA       CLA           -29.6985105000       30.1521167000      -25.5326654000  IONS      343            -1.0000000000
       344       344  CLA       CLA            33.3176876957      -24.4445687088      -29.2115107021  IONS      344            -1.0000000000
       345       345  CLA       CLA           -16.3043239000       11.7042484000       35.8009699000  IONS      345            -1.0000000000
       346       346  CLA       CLA            -7.5356592800       13.7262499000      -31.7868993000  IONS      346            -1.0000000000
       347       347  CLA       CLA           -22.5152846000       21.0823821000       33.8886050000  IONS      347            -1.0000000000
       348       348  CLA       CLA            -9.3859808300       31.1282503000      -42.1039970000  IONS      348            -1.0000000000
       349       349  CLA       CLA            13.9079891077      -12.2528282918       39.6595455099  IONS      349            -1.0000000000
       350       350  CLA       CLA            34.0507415371       34.8226585176      -41.8825225961  IONS      350            -1.0000000000
       351       351  CLA       CLA           -27.5595526000      -34.3073468000      -33.8058850000  IONS      351            -1.0000000000
       352       352  CLA       CLA           -30.3310912000      -19.4752273000      -32.0390352000  IONS      352            -1.0000000000
       353       353  CLA       CLA            -8.7751024200        9.1157550400       26.0818994000  IONS      353            -1.0000000000
       354       354  CLA       CLA            15.1514869000      -33.4931269000      -27.6008357000  IONS      354            -1.0000000000
       355       355  CLA       CLA           -32.4761877415       17.7365399581      -33.3933721093  IONS      355            -1.0000000000
       356       356  CLA       CLA             7.3299949252       15.9188334323      -39.0596502541  IONS      356            -1.0000000000
       357       357  CLA       CLA           -16.6644466956       18.9219766929      -38.3903019182  IONS      357            -1.0000000000
       358       358  CLA       CLA            -4.6485399500      -26.6071084000      -39.7618939000  IONS      358            -1.0000000000
       359       359  CLA       CLA             3.2213054918       -5.2664246705      -38.6061271483  IONS      359            -1.0000000000
       360       360  CLA       CLA           -26.4873346000       -6.1304165700       38.0854750000  IONS      360            -1.0000000000
       361       361  CLA       CLA            -7.5203288189      -29.2060411088       37.9167266066  IONS      361            -1.0000000000
       362       362  CLA       CLA             0.1113323540      -34.8021933000      -37.4833245000  IONS      362            -1.0000000000
       363       363  CLA       CLA            -5.7566778800       15.4599109000      -38.9646476000  IONS      363            -1.0000000000
       364       364  CLA       CLA            14.5577756000       18.5506952000      -29.8758659000  IONS      364            -1.0000000000
       365       365  CLA       CLA            -1.1836598830       -5.9904702661      -20.8543926291  IONS      365            -1.0000000000
       366       366  CLA       CLA           -15.5133451892       16.9677169047       27.8494286123  IONS      366            -1.0000000000
       367       367  CLA       CLA            17.6657938000      -13.6130141000      -41.4234667000  IONS      367            -1.0000000000
       368       368  CLA       CLA            -0.3941704120      -13.6945067000       29.3186368000  IONS      368            -1.0000000000
       369       369  CLA       CLA             7.0343671700      -19.8759351000      -25.1995745000  IONS      369            -1.0000000000
       370       370  CLA       CLA            11.0988117000       -4.4245621100       31.5005164000  IONS      370            -1.0000000000
       371       371  CLA       CLA            20.0632608000       29.5244403000       26.9718590000  IONS      371            -1.0000000000
       372       372  CLA       CLA           -21.6485686018      -19.9188190965       34.2054656999  IONS      372            -1.0000000000
       373       373  CLA       CLA           -26.3179340001       -3.1835802204      -29.3331844349  IONS      373            -1.0000000000
       374       374  CLA       CLA           -27.4675337930        5.3431195588      -36.6406047001  IONS      374            -1.0000000000
       375       375  CLA       CLA            -8.6146396600      -13.4815374000      -35.0031886000  IONS      375            -1.0000000000
       376       376  CLA       CLA           -16.3807315000      -12.0871751000      -23.8396602000  IONS      376            -1.0000000000
       377       377  CLA       CLA           -33.5758285151       -1.9782806855       37.1939498189  IONS      377            -1.0000000000
       378       378  CLA       CLA            29.0070856625        0.8844102257       36.7419297291  IONS      378            -1.0000000000
       379       379  CLA       CLA             5.8747051130       11.6824776097      -41.8046279278  IONS      379            -1.0000000000
       380       380  CLA       CLA           -34.3195643000        5.8976756000       19.8587662000  IONS      380            -1.0000000000
       381       381  CLA       CLA           -34.1625255301        0.7407387503       41.6700746924  IONS      381            -1.0000000000
       382       382  CLA       CLA           -28.3141481041       24.5295483939       26.5505441916  IONS      382            -1.0000000000
       383       383  CLA       CLA           -34.4813733000       34.5216130000       41.5100753000  IONS      383            -1.0000000000
       384       384  CLA       CLA           -29.6830047000       16.4900557000      -29.5538777000  IONS      384            -1.0000000000
       385       385  CLA       CLA           -21.4821263000      -24.2102326000       30.7150627000  IONS      385            -1.0000000000
       386       386  CLA       CLA            27.3524676000      -22.2376019000      -34.3670219000  IONS      386            -1.0000000000
       387       387  CLA       CLA             3.3452245600      -27.4350583000       38.7267922000  IONS      387            -1.0000000000
       388       388  CLA       CLA           -13.9671323000      -33.4458863000      -28.0769439000  IONS      388            -1.0000000000
       389       389  CLA       CLA           -17.5976547000      -18.5870641000       29.6038495000  IONS      389            -1.0000000000
       390       390  CLA       CLA           -13.7523429000      -10.1910750000       32.6552924000  IONS      390            -1.0000000000
       391       391  CLA       CLA            -6.7805379100       19.4308151000       29.3799254000  IONS      391            -1.0000000000
       392       392  CLA       CLA           -34.8239855000      -13.0114844000       26.7341788000  IONS      392            -1.0000000000
       393       393  CLA       CLA           -15.2481866722       -0.2137543674       31.2906298110  IONS      393            -1.0000000000
       394       394  CLA       CLA            31.7540851011        5.1437470217       39.1927943718  IONS      394            -1.0000000000
       395       395  CLA       CLA           -15.9338917009       34.0359972829      -28.3891170896  IONS      395            -1.0000000000
       396       396  CLA       CLA            29.4986446957       25.0273655195       27.0716104224  IONS      396            -1.0000000000
       397       397  CLA       CLA           -30.0481641000      -13.1720203000       28.9270675000  IONS      397            -1.0000000000
       398       398  CLA       CLA           -11.4023691000       12.6641441000      -27.2302795000  IONS      398            -1.0000000000
       399       399  CLA       CLA            25.1534247000      -12.0379939000      -31.9507256000  IONS      399            -1.0000000000
       400       400  CLA       CLA            -3.3238199865       33.0319327545      -28.8548729831  IONS      400            -1.0000000000
       401       401  CLA       CLA           -20.4272330000       -7.4834769900       29.0993816000  IONS      401            -1.0000000000
       402       402  CLA       CLA           -13.7557866904        3.5603687127       27.6432914995  IONS      402            -1.0000000000
       403       403  CLA       CLA            -2.5348353600        3.3016610800      -29.7163410000  IONS      403            -1.0000000000
       404       404  CLA       CLA            30.3459519918       22.9931526049       41.2871822970  IONS      404            -1.0000000000
       405       405  CLA       CLA             2.7377642500      -20.5149740000      -24.1907977000  IONS      405            -1.0000000000
       406       406  CLA       CLA            17.8536102000      -30.0360088000       38.4466754000  IONS      406            -1.0000000000
       407       407  CLA       CLA           -33.6321352744      -25.7226318014      -36.6148879845  IONS      407            -1.0000000000
       408       408  CLA       CLA            32.3883405000       28.1727850000      -40.0656192000  IONS      408            -1.0000000000
       409       409  CLA       CLA           -23.5383963000       34.5806828000       25.1205812000  IONS      409            -1.0000000000
       410       410  CLA       CLA            -7.9047770471      -25.2820506196      -35.6610190977  IONS      410            -1.0000000000
       411       411  CLA       CLA           -22.2273965000       18.4725947000      -28.3942392000  IONS      411            -1.0000000000
       412       412  CLA       CLA           -29.6132880000      -19.9254044000       30.6311715000  IONS      412            -1.0000000000
       413       413  CLA       CLA           -18.6676477006        1.8893237367      -29.5863345891  IONS      413            -1.0000000000
       414       414  CLA       CLA            -4.5725391900      -34.9305930000       16.4033068000  IONS      414            -1.0000000000
       415       415  CLA       CLA           -23.5915745000       -8.3546172800      -28.0762522000  IONS      415            -1.0000000000
       416       416  CLA       CLA           -29.9650130235       16.8123815993       29.7418572366  IONS      416            -1.0000000000
       417       417  CLA       CLA           -12.0798154000       29.7626304000      -32.9746741000  IONS      417            -1.0000000000
       418       418  CLA       CLA            12.3359606254        8.4268817895       24.4666813908  IONS      418            -1.0000000000
       419       419  CLA       CLA            26.0311007000      -24.7408099000      -24.3808737000  IONS      419            -1.0000000000
       420       420  CLA       CLA           -14.8517161088       26.1752246263       31.4947062903  IONS      420            -1.0000000000
       421       421  CLA       CLA            28.2754126000      -33.8895000000       32.2321676000  IONS      421            -1.0000000000
       422       422  CLA       CLA            19.7225629000      -21.8364434000       38.2633703000  IONS      422            -1.0000000000
       423       423  CLA       CLA           -17.9765348451       -9.1231885403      -26.1244068914  IONS      423            -1.0000000000
       424       424  CLA       CLA            34.2263522992       22.4110413534      -28.2432288109  IONS      424            -1.0000000000
       425       425  CLA       CLA           -26.0956111961       10.9709295907      -28.7933056978  IONS      425            -1.0000000000
       426       426  CLA       CLA           -18.5197272000      -26.9655992000      -23.2684522000  IONS      426            -1.0000000000
       427       427  CLA       CLA            33.7776550571       -9.1192843868       40.1860699894  IONS      427            -1.0000000000
       428       428  CLA       CLA           -21.9410078010       21.3677678043      -35.2442497910  IONS      428            -1.0000000000
       429       429  CLA       CLA            -0.7410290315       -4.5182520348       35.3082857450  IONS      429            -1.0000000000
       430       430  CLA       CLA            -2.3994747335      -23.0063778059      -31.6015041706  IONS      430            -1.0000000000
       431       431  CLA       CLA            -7.4600971100        6.1003567200      -26.6144100000  IONS      431            -1.0000000000
       432       432  CLA       CLA           -16.6192977119      -10.7185905001      -37.1801507015  IONS      432            -1.0000000000
       433       433  CLA       CLA           -11.0329990812       24.1742545688      -27.5989280844  IONS      433            -1.0000000000
       434       434  CLA       CLA            32.0061889000       14.3887167000       24.2700718000  IONS      434            -1.0000000000
       435       435  CLA       CLA            28.5014607961       -4.5050895841      -42.2534117264  IONS      435            -1.0000000000
       436       436  CLA       CLA            10.0113426824       11.5797387003      -25.3333776669  IONS      436            -1.0000000000
       437       437  CLA       CLA             1.1873694100       -4.6510463600      -24.4825584000  IONS      437            -1.0000000000
       438       438  CLA       CLA            10.6066716000       29.6659346000       31.9453508000  IONS      438            -1.0000000000
       439       439  CLA       CLA            -0.7369722086        4.3530737965       33.1699959015  IONS      439            -1.0000000000
       440       440  CLA       CLA           -34.5086496000      -23.9140720000       32.9910446000  IONS      440            -1.0000000000
       441       441  CLA       CLA           -30.8288972221       -8.8272274507      -32.3194497060  IONS      441            -1.0000000000
       442       442  CLA       CLA            29.4427517000      -16.9868443000       41.6091746000  IONS      442            -1.0000000000
       443       443  CLA       CLA            17.4145627000       18.8943461000      -38.5700727000  IONS      443            -1.0000000000
       444       444  CLA       CLA           -14.3921327000       24.1338270000      -15.3815661000  IONS      444            -1.0000000000
       445       445  CLA       CLA            13.9806434000       -4.6783407400      -39.6589390000  IONS      445            -1.0000000000
       446       446  CLA       CLA            18.6287081259       -5.9196528135       29.2262931044  IONS      446            -1.0000000000
       447       447  CLA       CLA           -32.9363586621        0.9250243548      -39.6953329217  IONS      447            -1.0000000000
       448       448  CLA       CLA            24.5566121810       17.5590693061      -36.8315028013  IONS      448            -1.0000000000
       449       449  CLA       CLA            32.3928870108       10.6163755992       23.3088929990  IONS      449            -1.0000000000
       450       450  CLA       CLA            21.3175281836      -31.9903981900       39.7460869055  IONS      450            -1.0000000000
