* GENERATED BY CHARMM-GUI (HTTP://WWW.CHARMM-GUI.ORG) V3.7 ON JUL, 07. 2026. JOB
* GET A DIFFERENT CONFORMATION FOR LIPIDS PENETRATING PROTEIN / CHOL
*  DATE:     7/ 7/26      9:38:42      CREATED BY USER: charmm-gui
*
     18716  EXT
         1         1  GLY       N              -0.0817234283       -3.0878904763        1.7839306058  PROA      2               0.0000000000
         2         1  GLY       HT1            -0.5480946416       -3.7559213677        1.1375308691  PROA      2               0.0000000000
         3         1  GLY       HT2            -0.4618067928       -2.1325107687        1.6277696297  PROA      2               0.0000000000
         4         1  GLY       HT3            -0.2609438559       -3.3753015803        2.7672285747  PROA      2               0.0000000000
         5         1  GLY       CA              1.3572765717       -3.0878030879        1.5303601178  PROA      2               0.0000000000
         6         1  GLY       HA1             1.4953676477       -2.7595664578        0.5092736722  PROA      2               0.0000000000
         7         1  GLY       HA2             1.7302765717       -4.0759716505        1.7407380919  PROA      2               0.0000000000
         8         1  GLY       C               2.0932765717       -2.1609681073        2.4115036469  PROA      2               0.0000000000
         9         1  GLY       O               1.8802765717       -2.1648093863        3.6134363591  PROA      2               0.0000000000
        10         2  ALA       N               3.0142765717       -1.3634418797        1.8380327094  PROA      3               0.0000000000
        11         2  ALA       HN              3.2504649556       -1.4327108983        0.8692102229  PROA      3               0.0000000000
        12         2  ALA       CA              3.7262765717       -0.3528850094        2.5772761145  PROA      3               0.0000000000
        13         2  ALA       HA              3.3922765717       -0.4669861168        3.5690951188  PROA      3               0.0000000000
        14         2  ALA       CB              5.2572765717       -0.5097652629        2.4193882236  PROA      3               0.0000000000
        15         2  ALA       HB1             5.5682765717       -0.3828373273        1.3645734062  PROA      3               0.0000000000
        16         2  ALA       HB2             5.7882765717        0.2410154396        3.0507180397  PROA      3               0.0000000000
        17         2  ALA       HB3             5.5582765717       -1.5133402494        2.7741152264  PROA      3               0.0000000000
        18         2  ALA       C               3.3062765717        1.0353635288        2.1898190252  PROA      3               0.0000000000
        19         2  ALA       O               2.9222765717        1.2822775070        1.0558249832  PROA      3               0.0000000000
        20         3  LEU       N               3.3532765717        1.9837628593        3.1386750259  PROA      4               0.0000000000
        21         3  LEU       HN              3.6425123297        1.9113866937        4.0909926079  PROA      4               0.0000000000
        22         3  LEU       CA              2.9172765717        3.3419420989        2.7361900533  PROA      4               0.0000000000
        23         3  LEU       HA              2.5252765717        3.3699652130        1.7310827431  PROA      4               0.0000000000
        24         3  LEU       CB              4.0312765717        4.4445752105        2.8138187928  PROA      4               0.0000000000
        25         3  LEU       HB1             4.6810460751        4.1950924529        3.6842601728  PROA      4               0.0000000000
        26         3  LEU       HB2             4.5862765717        4.1936349564        3.7526467796  PROA      4               0.0000000000
        27         3  LEU       CG              3.6052765717        5.9402859022        2.9844368647  PROA      4               0.0000000000
        28         3  LEU       HG              2.7212765717        5.8711611501        3.6595507578  PROA      4               0.0000000000
        29         3  LEU       CD1             4.6672765717        6.7836062468        3.6807390955  PROA      4               0.0000000000
        30         3  LEU       HD11            5.2412765717        6.1382940743        4.3572870983  PROA      4               0.0000000000
        31         3  LEU       HD12            5.3552765717        7.2182386454        2.9260691821  PROA      4               0.0000000000
        32         3  LEU       HD13            4.2062765717        7.6181250775        4.2603685644  PROA      4               0.0000000000
        33         3  LEU       CD2             2.8132765717        6.8359210191        2.0045171040  PROA      4               0.0000000000
        34         3  LEU       HD21            1.8812765717        6.3295848782        1.6715475673  PROA      4               0.0000000000
        35         3  LEU       HD22            2.5312765717        7.8066516447        2.4778246705  PROA      4               0.0000000000
        36         3  LEU       HD23            3.4242765717        7.0434315571        1.1056748617  PROA      4               0.0000000000
        37         3  LEU       C               1.7572765717        3.7179314737        3.6080535690  PROA      4               0.0000000000
        38         3  LEU       O               1.8622765717        3.6086597323        4.8220452027  PROA      4               0.0000000000
        39         4  ALA       N               0.6492765717        4.2365372796        3.0001094778  PROA      5               0.0000000000
        40         4  ALA       HN              0.5027483105        4.3030039040        2.0135438101  PROA      5               0.0000000000
        41         4  ALA       CA             -0.4317234283        4.7458226541        3.8269821447  PROA      5               0.0000000000
        42         4  ALA       HA             -0.1957234283        4.4674224674        4.8347952901  PROA      5               0.0000000000
        43         4  ALA       CB             -0.6647234283        6.2620881355        3.6304115722  PROA      5               0.0000000000
        44         4  ALA       HB1            -0.8447234283        6.4768174034        2.5546939784  PROA      5               0.0000000000
        45         4  ALA       HB2            -1.5407234283        6.6069617232        4.2167145728  PROA      5               0.0000000000
        46         4  ALA       HB3             0.2222765717        6.8376041181        3.9637677687  PROA      5               0.0000000000
        47         4  ALA       C              -1.6717234283        3.9726754731        3.4757679131  PROA      5               0.0000000000
        48         4  ALA       O              -2.0827234283        3.9011582947        2.3159553018  PROA      5               0.0000000000
        49         5  VAL       N              -2.3367234283        3.3495018357        4.4535100149  PROA      6               0.0000000000
        50         5  VAL       HN             -2.0808185656        3.3209321050        5.4162706455  PROA      6               0.0000000000
        51         5  VAL       CA             -3.5617234283        2.6265822190        4.1340163094  PROA      6               0.0000000000
        52         5  VAL       HA             -3.4737234283        2.1740761523        3.1520110856  PROA      6               0.0000000000
        53         5  VAL       CB             -4.8707234283        3.4350029374        4.2182833973  PROA      6               0.0000000000
        54         5  VAL       HB             -5.0167234283        3.8420837417        5.2404077629  PROA      6               0.0000000000
        55         5  VAL       CG1            -4.8597234283        4.6231216957        3.2358497781  PROA      6               0.0000000000
        56         5  VAL       HG11           -4.6597234283        4.2554849276        2.2040730548  PROA      6               0.0000000000
        57         5  VAL       HG12           -5.8367234283        5.1441675037        3.2491262970  PROA      6               0.0000000000
        58         5  VAL       HG13           -4.0687234283        5.3515556481        3.5178922873  PROA      6               0.0000000000
        59         5  VAL       CG2            -6.0747234283        2.5447746835        3.8247841521  PROA      6               0.0000000000
        60         5  VAL       HG21           -5.8747234283        2.0090586650        2.8723948685  PROA      6               0.0000000000
        61         5  VAL       HG22           -6.2887234283        1.8045623142        4.6259393483  PROA      6               0.0000000000
        62         5  VAL       HG23           -6.9907234283        3.1626468297        3.6972890110  PROA      6               0.0000000000
        63         5  VAL       C              -3.6147234283        1.4783022759        5.0827176177  PROA      6               0.0000000000
        64         5  VAL       O              -3.6797234283        1.6962361409        6.2888676210  PROA      6               0.0000000000
        65         6  VAL       N              -3.5717234283        0.2331704975        4.5525856960  PROA      7               0.0000000000
        66         6  VAL       HN             -3.5630371929       -0.0157627505        3.5876150501  PROA      7               0.0000000000
        67         6  VAL       CA             -3.5327234283       -0.9003483568        5.4672266129  PROA      7               0.0000000000
        68         6  VAL       HA             -3.4437234283       -0.5067082006        6.4682003525  PROA      7               0.0000000000
        69         6  VAL       CB             -4.7727234283       -1.7886630400        5.3572310506  PROA      7               0.0000000000
        70         6  VAL       HB             -4.6057234283       -2.5625529867        4.5751067955  PROA      7               0.0000000000
        71         6  VAL       CG1            -5.0837234283       -2.4682446023        6.7055607210  PROA      7               0.0000000000
        72         6  VAL       HG11           -5.2697234283       -1.6891017016        7.4763092794  PROA      7               0.0000000000
        73         6  VAL       HG12           -5.9987234283       -3.0907460185        6.6138765523  PROA      7               0.0000000000
        74         6  VAL       HG13           -4.2467234283       -3.1052339385        7.0568292588  PROA      7               0.0000000000
        75         6  VAL       CG2            -5.9907234283       -0.9545310471        4.8965697667  PROA      7               0.0000000000
        76         6  VAL       HG21           -6.1467234283       -0.1034953118        5.5883473157  PROA      7               0.0000000000
        77         6  VAL       HG22           -5.8537234283       -0.5687742567        3.8605332332  PROA      7               0.0000000000
        78         6  VAL       HG23           -6.9147234283       -1.5699624077        4.9106495536  PROA      7               0.0000000000
        79         6  VAL       C              -2.2537234283       -1.6653664232        5.1926408191  PROA      7               0.0000000000
        80         6  VAL       O              -1.9337234283       -2.0391421724        4.0540356684  PROA      7               0.0000000000
        81         7  VAL       N              -1.3957234283       -1.9598003856        6.1854900734  PROA      8               0.0000000000
        82         7  VAL       HN             -1.4432608868       -1.4984342150        7.0675858770  PROA      8               0.0000000000
        83         7  VAL       CA             -0.3487234283       -2.9427701222        6.0838264281  PROA      8               0.0000000000
        84         7  VAL       HA              0.1062765717       -2.9079572791        5.1053255002  PROA      8               0.0000000000
        85         7  VAL       CB             -0.8507234283       -4.3598315107        6.4150801397  PROA      8               0.0000000000
        86         7  VAL       HB             -1.2717234283       -4.4495804574        7.4413516079  PROA      8               0.0000000000
        87         7  VAL       CG1            -1.9777234283       -4.7849948036        5.4522939878  PROA      8               0.0000000000
        88         7  VAL       HG11           -1.6687234283       -4.6289980489        4.3975404561  PROA      8               0.0000000000
        89         7  VAL       HG12           -2.2207234283       -5.8532628397        5.6038835756  PROA      8               0.0000000000
        90         7  VAL       HG13           -2.9037234283       -4.2035192461        5.6349170311  PROA      8               0.0000000000
        91         7  VAL       CG2             0.2852765717       -5.3272055531        6.1119276006  PROA      8               0.0000000000
        92         7  VAL       HG21            0.6982765717       -5.1342830720        5.0998061077  PROA      8               0.0000000000
        93         7  VAL       HG22            1.1042765717       -5.2130572974        6.8599798552  PROA      8               0.0000000000
        94         7  VAL       HG23           -0.0597234283       -6.3781301984        6.1631368777  PROA      8               0.0000000000
        95         7  VAL       C               0.8142765717       -2.5810082471        6.9977325205  PROA      8               0.0000000000
        96         7  VAL       O               0.6592765717       -2.4621874188        8.2054968232  PROA      8               0.0000000000
        97         8  TRP       N               2.0082765717       -2.4030459892        6.3915127297  PROA      9               0.0000000000
        98         8  TRP       HN              2.1139064123       -2.5351564501        5.4087630144  PROA      9               0.0000000000
        99         8  TRP       CA              3.2182765717       -2.0134510536        7.0920873412  PROA      9               0.0000000000
       100         8  TRP       HA              3.0282765717       -2.0397345904        8.1532033460  PROA      9               0.0000000000
       101         8  TRP       CB              4.4122765717       -2.9858085491        6.8193348875  PROA      9               0.0000000000
       102         8  TRP       HB1             4.4259454971       -3.2116633772        5.7298836279  PROA      9               0.0000000000
       103         8  TRP       HB2             4.4792765717       -3.1592878608        5.7234654024  PROA      9               0.0000000000
       104         8  TRP       CG              4.3112765717       -4.3173191591        7.5607959421  PROA      9               0.0000000000
       105         8  TRP       CD1             4.6122765717       -4.5806986202        8.8682745307  PROA      9               0.0000000000
       106         8  TRP       HD1             5.0242765717       -3.8683533550        9.5693231903  PROA      9               0.0000000000
       107         8  TRP       NE1             4.1962765717       -5.8492197913        9.2176611911  PROA      9               0.0000000000
       108         8  TRP       HE1             4.4062765717       -6.2690667435       10.0735703783  PROA      9               0.0000000000
       109         8  TRP       CE2             3.6662765717       -6.4576696241        8.1067701969  PROA      9               0.0000000000
       110         8  TRP       CD2             3.7792765717       -5.5446911164        7.0264701254  PROA      9               0.0000000000
       111         8  TRP       CE3             3.3562765717       -5.8929493128        5.7448445059  PROA      9               0.0000000000
       112         8  TRP       HE3             3.4002765717       -5.2086843523        4.9163600680  PROA      9               0.0000000000
       113         8  TRP       CZ3             2.7782765717       -7.1582383954        5.5728545715  PROA      9               0.0000000000
       114         8  TRP       HZ3             2.3162765717       -7.4383856732        4.6354525752  PROA      9               0.0000000000
       115         8  TRP       CZ2             3.0892765717       -7.7091899783        7.9308531621  PROA      9               0.0000000000
       116         8  TRP       HZ2             2.9532765717       -8.3884660730        8.7590041068  PROA      9               0.0000000000
       117         8  TRP       CH2             2.6332765717       -8.0472036484        6.6525516488  PROA      9               0.0000000000
       118         8  TRP       HH2             2.1502765717       -8.9910844934        6.4159804109  PROA      9               0.0000000000
       119         8  TRP       C               3.6132765717       -0.5739077729        6.7523151488  PROA      9               0.0000000000
       120         8  TRP       O               3.6992765717       -0.1379504822        5.5976661802  PROA      9               0.0000000000
       121         9  LEU       N               3.8702765717        0.2693360089        7.7623210520  PROA      10              0.0000000000
       122         9  LEU       HN              3.8936429729        0.0563432019        8.7369453311  PROA      10              0.0000000000
       123         9  LEU       CA              4.1522765717        1.6614557746        7.4477681025  PROA      10              0.0000000000
       124         9  LEU       HA              3.8522765717        1.8486557048        6.4250045981  PROA      10              0.0000000000
       125         9  LEU       CB              5.6572765717        2.0478283077        7.2455472687  PROA      10              0.0000000000
       126         9  LEU       HB1             6.0982846169        1.2990560029        6.5477205068  PROA      10              0.0000000000
       127         9  LEU       HB2             6.1532765717        1.3469227314        6.5357160400  PROA      10              0.0000000000
       128         9  LEU       CG              6.6722765717        2.1339840032        8.4294371268  PROA      10              0.0000000000
       129         9  LEU       HG              7.6252765717        2.4489936230        7.9243015613  PROA      10              0.0000000000
       130         9  LEU       CD1             6.3012765717        3.3407984645        9.3159182918  PROA      10              0.0000000000
       131         9  LEU       HD11            5.3122765717        3.1992652721        9.7924194517  PROA      10              0.0000000000
       132         9  LEU       HD12            7.0412765717        3.4546934578       10.1351459345  PROA      10              0.0000000000
       133         9  LEU       HD13            6.2762765717        4.2890578454        8.7484069292  PROA      10              0.0000000000
       134         9  LEU       CD2             7.0882765717        0.8870948421        9.2223686622  PROA      10              0.0000000000
       135         9  LEU       HD21            6.4202765717        0.0274325478        9.0162479699  PROA      10              0.0000000000
       136         9  LEU       HD22            8.1152765717        0.5940874757        8.9021988897  PROA      10              0.0000000000
       137         9  LEU       HD23            7.1412765717        1.0905713410       10.3022016652  PROA      10              0.0000000000
       138         9  LEU       C               3.2672765717        2.5681910689        8.2681168735  PROA      10              0.0000000000
       139         9  LEU       O               3.1422765717        2.4439527300        9.4831089867  PROA      10              0.0000000000
       140        10  TRP       N               2.5622765717        3.4763177759        7.5800137678  PROA      11              0.0000000000
       141        10  TRP       HN              2.6395807279        3.6108331251        6.5949566485  PROA      11              0.0000000000
       142        10  TRP       CA              1.6222765717        4.3391879791        8.2389287946  PROA      11              0.0000000000
       143        10  TRP       HA              1.6842765717        4.2125295444        9.3127680008  PROA      11              0.0000000000
       144        10  TRP       CB              1.9642765717        5.8426076874        8.0001209623  PROA      11              0.0000000000
       145        10  TRP       HB1             2.1088872664        5.9897963653        6.9067205187  PROA      11              0.0000000000
       146        10  TRP       HB2             2.0342765717        6.0241409398        6.9075800348  PROA      11              0.0000000000
       147        10  TRP       CG              3.2482765717        6.3466797425        8.6890341377  PROA      11              0.0000000000
       148        10  TRP       CD1             3.4032765717        6.9350623660        9.9195299273  PROA      11              0.0000000000
       149        10  TRP       HD1             2.6912765717        6.9803750989       10.7323175726  PROA      11              0.0000000000
       150        10  TRP       NE1             4.7182765717        7.3311495041       10.1025189408  PROA      11              0.0000000000
       151        10  TRP       HE1             5.1472765717        7.6824478123       10.9048745344  PROA      11              0.0000000000
       152        10  TRP       CE2             5.4492765717        6.9634352117        9.0096112598  PROA      11              0.0000000000
       153        10  TRP       CD2             4.5712765717        6.3318076912        8.1067293875  PROA      11              0.0000000000
       154        10  TRP       CE3             5.0512765717        5.8471321912        6.8983657586  PROA      11              0.0000000000
       155        10  TRP       HE3             4.3842765717        5.3576265417        6.2024654646  PROA      11              0.0000000000
       156        10  TRP       CZ3             6.4202765717        6.0147733601        6.6025255340  PROA      11              0.0000000000
       157        10  TRP       HZ3             6.6882765717        5.8339229764        5.5763027810  PROA      11              0.0000000000
       158        10  TRP       CZ2             6.8052765717        7.1220324299        8.7284068459  PROA      11              0.0000000000
       159        10  TRP       HZ2             7.4682765717        7.6238421441        9.4134623259  PROA      11              0.0000000000
       160        10  TRP       CH2             7.2832765717        6.6603669986        7.4894403292  PROA      11              0.0000000000
       161        10  TRP       HH2             8.3162765717        6.8221576322        7.2110291389  PROA      11              0.0000000000
       162        10  TRP       C               0.1672765717        3.9826512104        7.8979500084  PROA      11              0.0000000000
       163        10  TRP       O              -0.2607234283        3.5079805062        6.8392523545  PROA      11              0.0000000000
       164        11  LEU       N              -0.6877234283        4.2958638129        8.8652130883  PROA      12              0.0000000000
       165        11  LEU       HN             -0.3478785702        4.5429434778        9.7703437538  PROA      12              0.0000000000
       166        11  LEU       CA             -2.1087234283        4.3189910404        8.7464059701  PROA      12              0.0000000000
       167        11  LEU       HA             -2.4157234283        4.1509116119        7.7163228153  PROA      12              0.0000000000
       168        11  LEU       CB             -2.3637234283        5.7585497761        9.2314695188  PROA      12              0.0000000000
       169        11  LEU       HB1            -1.9072976730        5.8502401590       10.2440793417  PROA      12              0.0000000000
       170        11  LEU       HB2            -1.9017234283        5.7876692335       10.2517993954  PROA      12              0.0000000000
       171        11  LEU       CG             -3.7517234283        6.3800002526        9.3973890936  PROA      12              0.0000000000
       172        11  LEU       HG             -3.5637234283        7.4630970375        9.5875715178  PROA      12              0.0000000000
       173        11  LEU       CD1            -4.7987234283        6.5325259717        8.2757180612  PROA      12              0.0000000000
       174        11  LEU       HD11           -5.0287234283        5.5396523598        7.8459844336  PROA      12              0.0000000000
       175        11  LEU       HD12           -5.7297234283        7.0191761503        8.6290459595  PROA      12              0.0000000000
       176        11  LEU       HD13           -4.3757234283        7.1460157361        7.4529669998  PROA      12              0.0000000000
       177        11  LEU       CD2            -4.6447234283        5.5924554245       10.3600609711  PROA      12              0.0000000000
       178        11  LEU       HD21           -4.1277234283        5.4530070897       11.3325275062  PROA      12              0.0000000000
       179        11  LEU       HD22           -5.5937234283        6.1365464844       10.5381674519  PROA      12              0.0000000000
       180        11  LEU       HD23           -4.8817234283        4.5847513187        9.9483566656  PROA      12              0.0000000000
       181        11  LEU       C              -2.6267234283        3.2150745942        9.6690903581  PROA      12              0.0000000000
       182        11  LEU       O              -2.3757234283        3.2164222770       10.8736828966  PROA      12              0.0000000000
       183        12  TRP       N              -3.3217234283        2.2197141878        9.0972060504  PROA      13              0.0000000000
       184        12  TRP       HN             -3.5891294332        2.2035432588        8.1366643441  PROA      13              0.0000000000
       185        12  TRP       CA             -3.7387234283        1.0714684665        9.8665055782  PROA      13              0.0000000000
       186        12  TRP       HA             -3.6797234283        1.2974241514       10.9227868043  PROA      13              0.0000000000
       187        12  TRP       CB             -5.2277234283        0.6878692507        9.5854652936  PROA      13              0.0000000000
       188        12  TRP       HB1            -5.3396595577        0.5368080441        8.4887647397  PROA      13              0.0000000000
       189        12  TRP       HB2            -5.3527234283        0.4799347686        8.4989146729  PROA      13              0.0000000000
       190        12  TRP       CG             -6.2347234283        1.7561734315       10.0041431856  PROA      13              0.0000000000
       191        12  TRP       CD1            -6.8357234283        1.9602718694       11.2132225162  PROA      13              0.0097141113
       192        12  TRP       HD1            -6.6687234283        1.3787910770       12.1100034751  PROA      13              0.0285026440
       193        12  TRP       NE1            -7.6017234283        3.1103149641       11.1904655321  PROA      13              0.0057420550
       194        12  TRP       HE1            -8.1547234283        3.3628923082       11.9553221756  PROA      13              0.0000000000
       195        12  TRP       CE2            -7.5647234283        3.6286682909        9.9190608646  PROA      13              0.0000000000
       196        12  TRP       CD2            -6.7307234283        2.7938474824        9.1400074532  PROA      13              0.0000000000
       197        12  TRP       CE3            -6.4997234283        3.0582165974        7.7873622777  PROA      13              0.0000000000
       198        12  TRP       HE3            -5.8097234283        2.4156839385        7.2760797899  PROA      13              0.0000000000
       199        12  TRP       CZ3            -7.1267234283        4.1727733102        7.2187566728  PROA      13              0.0000000000
       200        12  TRP       HZ3            -6.9917234283        4.3762656916        6.1698482637  PROA      13              0.0000000000
       201        12  TRP       CZ2            -8.1627234283        4.7530053459        9.3618282500  PROA      13              0.0000000000
       202        12  TRP       HZ2            -8.8257234283        5.4203516431        9.8844810216  PROA      13              0.0000000000
       203        12  TRP       CH2            -7.9257234283        5.0186363222        7.9980741723  PROA      13              0.0000000000
       204        12  TRP       HH2            -8.3677234283        5.9159696370        7.5832996284  PROA      13              0.0000000000
       205        12  TRP       C              -2.8157234283       -0.1253852850        9.6237936143  PROA      13              0.0000000000
       206        12  TRP       O              -2.2307234283       -0.3468189946        8.5601944829  PROA      13              0.0000000000
       207        13  LEU       N              -2.7487234283       -1.0086442257       10.6239329265  PROA      14              0.0000000000
       208        13  LEU       HN             -3.1456304301       -0.7048553821       11.4876351787  PROA      14              0.0000000000
       209        13  LEU       CA             -2.1967234283       -2.3310352836       10.6622198677  PROA      14              0.0000000000
       210        13  LEU       HA             -1.9257234283       -2.6268936696        9.6547096615  PROA      14              0.0000000000
       211        13  LEU       CB             -3.4727234283       -3.0662435101       11.1784067173  PROA      14              0.0090019548
       212        13  LEU       HB1            -3.7940384332       -2.5508305273       12.1128671898  PROA      14              0.0283556261
       213        13  LEU       HB2            -3.7317234283       -2.5995685232       12.1624714797  PROA      14              0.0301411777
       214        13  LEU       CG             -3.5527234283       -4.5606589023       11.5519139270  PROA      14              0.0194175294
       215        13  LEU       HG             -4.6387234283       -4.6943866091       11.7853532134  PROA      14              0.0150839139
       216        13  LEU       CD1            -3.5707234283       -5.6979258069       10.4914065072  PROA      14              0.0000000000
       217        13  LEU       HD11           -2.8757234283       -5.4566108465        9.6634674455  PROA      14              0.0000000000
       218        13  LEU       HD12           -3.2927234283       -6.6730160236       10.9274146141  PROA      14              0.0000000000
       219        13  LEU       HD13           -4.5887234283       -5.7935264285       10.0508017851  PROA      14              0.0000000000
       220        13  LEU       CD2            -2.4467234283       -5.0219986036       12.4917775767  PROA      14              0.0389697853
       221        13  LEU       HD21           -2.4397234283       -4.3944261679       13.4089617665  PROA      14              0.0585767539
       222        13  LEU       HD22           -2.6067234283       -6.0725437467       12.8035417539  PROA      14              0.0490093951
       223        13  LEU       HD23           -1.4507234283       -4.9503122392       12.0049120253  PROA      14              0.0243048224
       224        13  LEU       C              -0.9417234283       -2.3046640025       11.5664745638  PROA      14              0.0197755222
       225        13  LEU       O              -1.0027234283       -2.0023863088       12.7599707707  PROA      14              0.0453311634
       226        14  TRP       N               0.2432765717       -2.5779647167       10.9713781686  PROA      15              0.0001631266
       227        14  TRP       HN              0.3065799196       -2.8058547604       10.0026332827  PROA      15              0.0000000000
       228        14  TRP       CA              1.5182765717       -2.5631350064       11.6879848109  PROA      15              0.0227969814
       229        14  TRP       HA              1.3212765717       -2.5063365757       12.7475559214  PROA      15              0.0478715786
       230        14  TRP       CB              2.3432765717       -3.8583681096       11.4578626511  PROA      15              0.0170100029
       231        14  TRP       HB1             2.4995519431       -3.9728319081       10.3621540506  PROA      15              0.0000000000
       232        14  TRP       HB2             2.5352765717       -3.9571451247       10.3700285179  PROA      15              0.0000000000
       233        14  TRP       CG              1.6672765717       -5.1212757694       11.9511954420  PROA      15              0.0288409474
       234        14  TRP       CD1             1.7062765717       -5.6893897701       13.1978639955  PROA      15              0.0473887209
       235        14  TRP       HD1             2.2232765717       -5.2969051419       14.0616092222  PROA      15              0.0609799686
       236        14  TRP       NE1             0.8722765717       -6.7873431514       13.2502125622  PROA      15              0.0497372886
       237        14  TRP       HE1             0.8532765717       -7.4042372527       14.0070438960  PROA      15              0.0999184553
       238        14  TRP       CE2             0.3182765717       -6.9730895998       12.0008194068  PROA      15              0.0294269966
       239        14  TRP       CD2             0.8002765717       -5.9480504004       11.1575729186  PROA      15              0.0048506038
       240        14  TRP       CE3             0.4092765717       -5.8614822985        9.8288400773  PROA      15              0.0000000000
       241        14  TRP       HE3             0.7692765717       -5.0791362963        9.1782098191  PROA      15              0.0000000000
       242        14  TRP       CZ3            -0.4927234283       -6.8225019870        9.3508744317  PROA      15              0.0000000000
       243        14  TRP       HZ3            -0.8677234283       -6.7648791711        8.3387772965  PROA      15              0.0000000000
       244        14  TRP       CZ2            -0.5697234283       -7.9318469474       11.5267114566  PROA      15              0.0185148195
       245        14  TRP       HZ2            -0.9677234283       -8.6835927682       12.1853184873  PROA      15              0.0313790576
       246        14  TRP       CH2            -0.9797234283       -7.8400258915       10.1866029186  PROA      15              0.0000000000
       247        14  TRP       HH2            -1.6817234283       -8.5431423870        9.7585466211  PROA      15              0.0000000000
       248        14  TRP       C               2.4082765717       -1.3651889355       11.3473248464  PROA      15              0.0138328418
       249        14  TRP       OT1             1.9782947744       -0.5281351849       10.5094366244  PROA      15              0.0000000000
       250        14  TRP       OT2             3.5261070914       -1.2763936139       11.9219293367  PROA      15              0.0263014214
       251        15  GLY       N              -0.0817234283        3.0878904763       -1.7839306058  PROB      2               0.0000000000
       252        15  GLY       HT1            -0.5480946416        3.7559213677       -1.1375308691  PROB      2               0.0000000000
       253        15  GLY       HT2            -0.4618067928        2.1325107687       -1.6277696297  PROB      2               0.0000000000
       254        15  GLY       HT3            -0.2609438559        3.3753015803       -2.7672285747  PROB      2               0.0000000000
       255        15  GLY       CA              1.3572765717        3.0878030879       -1.5303601178  PROB      2               0.0000000000
       256        15  GLY       HA1             1.4953676477        2.7595664578       -0.5092736722  PROB      2               0.0000000000
       257        15  GLY       HA2             1.7302765717        4.0759716505       -1.7407380919  PROB      2               0.0000000000
       258        15  GLY       C               2.0932765717        2.1609681073       -2.4115036469  PROB      2               0.0000000000
       259        15  GLY       O               1.8802765717        2.1648093863       -3.6134363591  PROB      2               0.0000000000
       260        16  ALA       N               3.0142765717        1.3634418797       -1.8380327094  PROB      3               0.0000000000
       261        16  ALA       HN              3.2504649556        1.4327108983       -0.8692102229  PROB      3               0.0000000000
       262        16  ALA       CA              3.7262765717        0.3528850094       -2.5772761145  PROB      3               0.0000000000
       263        16  ALA       HA              3.3922765717        0.4669861168       -3.5690951188  PROB      3               0.0000000000
       264        16  ALA       CB              5.2572765717        0.5097652629       -2.4193882236  PROB      3               0.0000000000
       265        16  ALA       HB1             5.5682765717        0.3828373273       -1.3645734062  PROB      3               0.0000000000
       266        16  ALA       HB2             5.7882765717       -0.2410154396       -3.0507180397  PROB      3               0.0000000000
       267        16  ALA       HB3             5.5582765717        1.5133402494       -2.7741152264  PROB      3               0.0000000000
       268        16  ALA       C               3.3062765717       -1.0353635288       -2.1898190252  PROB      3               0.0000000000
       269        16  ALA       O               2.9222765717       -1.2822775070       -1.0558249832  PROB      3               0.0000000000
       270        17  LEU       N               3.3532765717       -1.9837628593       -3.1386750259  PROB      4               0.0000000000
       271        17  LEU       HN              3.6425123297       -1.9113866937       -4.0909926079  PROB      4               0.0000000000
       272        17  LEU       CA              2.9172765717       -3.3419420989       -2.7361900533  PROB      4               0.0000000000
       273        17  LEU       HA              2.5252765717       -3.3699652130       -1.7310827431  PROB      4               0.0000000000
       274        17  LEU       CB              4.0312765717       -4.4445752105       -2.8138187928  PROB      4               0.0000000000
       275        17  LEU       HB1             4.6810460751       -4.1950924529       -3.6842601728  PROB      4               0.0000000000
       276        17  LEU       HB2             4.5862765717       -4.1936349564       -3.7526467796  PROB      4               0.0000000000
       277        17  LEU       CG              3.6052765717       -5.9402859022       -2.9844368647  PROB      4               0.0000000000
       278        17  LEU       HG              2.7212765717       -5.8711611501       -3.6595507578  PROB      4               0.0000000000
       279        17  LEU       CD1             4.6672765717       -6.7836062468       -3.6807390955  PROB      4               0.0000000000
       280        17  LEU       HD11            5.2412765717       -6.1382940743       -4.3572870983  PROB      4               0.0000000000
       281        17  LEU       HD12            5.3552765717       -7.2182386454       -2.9260691821  PROB      4               0.0000000000
       282        17  LEU       HD13            4.2062765717       -7.6181250775       -4.2603685644  PROB      4               0.0000000000
       283        17  LEU       CD2             2.8132765717       -6.8359210191       -2.0045171040  PROB      4               0.0000000000
       284        17  LEU       HD21            1.8812765717       -6.3295848782       -1.6715475673  PROB      4               0.0000000000
       285        17  LEU       HD22            2.5312765717       -7.8066516447       -2.4778246705  PROB      4               0.0000000000
       286        17  LEU       HD23            3.4242765717       -7.0434315571       -1.1056748617  PROB      4               0.0000000000
       287        17  LEU       C               1.7572765717       -3.7179314737       -3.6080535690  PROB      4               0.0000000000
       288        17  LEU       O               1.8622765717       -3.6086597323       -4.8220452027  PROB      4               0.0000000000
       289        18  ALA       N               0.6492765717       -4.2365372796       -3.0001094778  PROB      5               0.0000000000
       290        18  ALA       HN              0.5027483105       -4.3030039040       -2.0135438101  PROB      5               0.0000000000
       291        18  ALA       CA             -0.4317234283       -4.7458226541       -3.8269821447  PROB      5               0.0000000000
       292        18  ALA       HA             -0.1957234283       -4.4674224674       -4.8347952901  PROB      5               0.0000000000
       293        18  ALA       CB             -0.6647234283       -6.2620881355       -3.6304115722  PROB      5               0.0000000000
       294        18  ALA       HB1            -0.8447234283       -6.4768174034       -2.5546939784  PROB      5               0.0000000000
       295        18  ALA       HB2            -1.5407234283       -6.6069617232       -4.2167145728  PROB      5               0.0000000000
       296        18  ALA       HB3             0.2222765717       -6.8376041181       -3.9637677687  PROB      5               0.0000000000
       297        18  ALA       C              -1.6717234283       -3.9726754731       -3.4757679131  PROB      5               0.0000000000
       298        18  ALA       O              -2.0827234283       -3.9011582947       -2.3159553018  PROB      5               0.0000000000
       299        19  VAL       N              -2.3367234283       -3.3495018357       -4.4535100149  PROB      6               0.0000000000
       300        19  VAL       HN             -2.0808185656       -3.3209321050       -5.4162706455  PROB      6               0.0000000000
       301        19  VAL       CA             -3.5617234283       -2.6265822190       -4.1340163094  PROB      6               0.0000000000
       302        19  VAL       HA             -3.4737234283       -2.1740761523       -3.1520110856  PROB      6               0.0000000000
       303        19  VAL       CB             -4.8707234283       -3.4350029374       -4.2182833973  PROB      6               0.0000000000
       304        19  VAL       HB             -5.0167234283       -3.8420837417       -5.2404077629  PROB      6               0.0000000000
       305        19  VAL       CG1            -4.8597234283       -4.6231216957       -3.2358497781  PROB      6               0.0000000000
       306        19  VAL       HG11           -4.6597234283       -4.2554849276       -2.2040730548  PROB      6               0.0000000000
       307        19  VAL       HG12           -5.8367234283       -5.1441675037       -3.2491262970  PROB      6               0.0000000000
       308        19  VAL       HG13           -4.0687234283       -5.3515556481       -3.5178922873  PROB      6               0.0000000000
       309        19  VAL       CG2            -6.0747234283       -2.5447746835       -3.8247841521  PROB      6               0.0000000000
       310        19  VAL       HG21           -5.8747234283       -2.0090586650       -2.8723948685  PROB      6               0.0000000000
       311        19  VAL       HG22           -6.2887234283       -1.8045623142       -4.6259393483  PROB      6               0.0000000000
       312        19  VAL       HG23           -6.9907234283       -3.1626468297       -3.6972890110  PROB      6               0.0000000000
       313        19  VAL       C              -3.6147234283       -1.4783022759       -5.0827176177  PROB      6               0.0000000000
       314        19  VAL       O              -3.6797234283       -1.6962361409       -6.2888676210  PROB      6               0.0000000000
       315        20  VAL       N              -3.5717234283       -0.2331704975       -4.5525856960  PROB      7               0.0000000000
       316        20  VAL       HN             -3.5630371929        0.0157627505       -3.5876150501  PROB      7               0.0000000000
       317        20  VAL       CA             -3.5327234283        0.9003483568       -5.4672266129  PROB      7               0.0000000000
       318        20  VAL       HA             -3.4437234283        0.5067082006       -6.4682003525  PROB      7               0.0000000000
       319        20  VAL       CB             -4.7727234283        1.7886630400       -5.3572310506  PROB      7               0.0000000000
       320        20  VAL       HB             -4.6057234283        2.5625529867       -4.5751067955  PROB      7               0.0000000000
       321        20  VAL       CG1            -5.0837234283        2.4682446023       -6.7055607210  PROB      7               0.0000000000
       322        20  VAL       HG11           -5.2697234283        1.6891017016       -7.4763092794  PROB      7               0.0000000000
       323        20  VAL       HG12           -5.9987234283        3.0907460185       -6.6138765523  PROB      7               0.0000000000
       324        20  VAL       HG13           -4.2467234283        3.1052339385       -7.0568292588  PROB      7               0.0000000000
       325        20  VAL       CG2            -5.9907234283        0.9545310471       -4.8965697667  PROB      7               0.0000000000
       326        20  VAL       HG21           -6.1467234283        0.1034953118       -5.5883473157  PROB      7               0.0000000000
       327        20  VAL       HG22           -5.8537234283        0.5687742567       -3.8605332332  PROB      7               0.0000000000
       328        20  VAL       HG23           -6.9147234283        1.5699624077       -4.9106495536  PROB      7               0.0000000000
       329        20  VAL       C              -2.2537234283        1.6653664232       -5.1926408191  PROB      7               0.0000000000
       330        20  VAL       O              -1.9337234283        2.0391421724       -4.0540356684  PROB      7               0.0000000000
       331        21  VAL       N              -1.3957234283        1.9598003856       -6.1854900734  PROB      8               0.0000000000
       332        21  VAL       HN             -1.4432608868        1.4984342150       -7.0675858770  PROB      8               0.0000000000
       333        21  VAL       CA             -0.3487234283        2.9427701222       -6.0838264281  PROB      8               0.0000000000
       334        21  VAL       HA              0.1062765717        2.9079572791       -5.1053255002  PROB      8               0.0000000000
       335        21  VAL       CB             -0.8507234283        4.3598315107       -6.4150801397  PROB      8               0.0000000000
       336        21  VAL       HB             -1.2717234283        4.4495804574       -7.4413516079  PROB      8               0.0000000000
       337        21  VAL       CG1            -1.9777234283        4.7849948036       -5.4522939878  PROB      8               0.0000000000
       338        21  VAL       HG11           -1.6687234283        4.6289980489       -4.3975404561  PROB      8               0.0000000000
       339        21  VAL       HG12           -2.2207234283        5.8532628397       -5.6038835756  PROB      8               0.0000000000
       340        21  VAL       HG13           -2.9037234283        4.2035192461       -5.6349170311  PROB      8               0.0000000000
       341        21  VAL       CG2             0.2852765717        5.3272055531       -6.1119276006  PROB      8               0.0000000000
       342        21  VAL       HG21            0.6982765717        5.1342830720       -5.0998061077  PROB      8               0.0000000000
       343        21  VAL       HG22            1.1042765717        5.2130572974       -6.8599798552  PROB      8               0.0000000000
       344        21  VAL       HG23           -0.0597234283        6.3781301984       -6.1631368777  PROB      8               0.0000000000
       345        21  VAL       C               0.8142765717        2.5810082471       -6.9977325205  PROB      8               0.0000000000
       346        21  VAL       O               0.6592765717        2.4621874188       -8.2054968232  PROB      8               0.0000000000
       347        22  TRP       N               2.0082765717        2.4030459892       -6.3915127297  PROB      9               0.0000000000
       348        22  TRP       HN              2.1139064123        2.5351564501       -5.4087630144  PROB      9               0.0000000000
       349        22  TRP       CA              3.2182765717        2.0134510536       -7.0920873412  PROB      9               0.0000000000
       350        22  TRP       HA              3.0282765717        2.0397345904       -8.1532033460  PROB      9               0.0000000000
       351        22  TRP       CB              4.4122765717        2.9858085491       -6.8193348875  PROB      9               0.0000000000
       352        22  TRP       HB1             4.4259454971        3.2116633772       -5.7298836279  PROB      9               0.0000000000
       353        22  TRP       HB2             4.4792765717        3.1592878608       -5.7234654024  PROB      9               0.0000000000
       354        22  TRP       CG              4.3112765717        4.3173191591       -7.5607959421  PROB      9               0.0000000000
       355        22  TRP       CD1             4.6122765717        4.5806986202       -8.8682745307  PROB      9               0.0000000000
       356        22  TRP       HD1             5.0242765717        3.8683533550       -9.5693231903  PROB      9               0.0000000000
       357        22  TRP       NE1             4.1962765717        5.8492197913       -9.2176611911  PROB      9               0.0000000000
       358        22  TRP       HE1             4.4062765717        6.2690667435      -10.0735703783  PROB      9               0.0000000000
       359        22  TRP       CE2             3.6662765717        6.4576696241       -8.1067701969  PROB      9               0.0000000000
       360        22  TRP       CD2             3.7792765717        5.5446911164       -7.0264701254  PROB      9               0.0000000000
       361        22  TRP       CE3             3.3562765717        5.8929493128       -5.7448445059  PROB      9               0.0000000000
       362        22  TRP       HE3             3.4002765717        5.2086843523       -4.9163600680  PROB      9               0.0000000000
       363        22  TRP       CZ3             2.7782765717        7.1582383954       -5.5728545715  PROB      9               0.0000000000
       364        22  TRP       HZ3             2.3162765717        7.4383856732       -4.6354525752  PROB      9               0.0000000000
       365        22  TRP       CZ2             3.0892765717        7.7091899783       -7.9308531621  PROB      9               0.0000000000
       366        22  TRP       HZ2             2.9532765717        8.3884660730       -8.7590041068  PROB      9               0.0000000000
       367        22  TRP       CH2             2.6332765717        8.0472036484       -6.6525516488  PROB      9               0.0000000000
       368        22  TRP       HH2             2.1502765717        8.9910844934       -6.4159804109  PROB      9               0.0000000000
       369        22  TRP       C               3.6132765717        0.5739077729       -6.7523151488  PROB      9               0.0000000000
       370        22  TRP       O               3.6992765717        0.1379504822       -5.5976661802  PROB      9               0.0000000000
       371        23  LEU       N               3.8702765717       -0.2693360089       -7.7623210520  PROB      10              0.0000000000
       372        23  LEU       HN              3.8936429729       -0.0563432019       -8.7369453311  PROB      10              0.0000000000
       373        23  LEU       CA              4.1522765717       -1.6614557746       -7.4477681025  PROB      10              0.0000000000
       374        23  LEU       HA              3.8522765717       -1.8486557048       -6.4250045981  PROB      10              0.0000000000
       375        23  LEU       CB              5.6572765717       -2.0478283077       -7.2455472687  PROB      10              0.0000000000
       376        23  LEU       HB1             6.0982846169       -1.2990560029       -6.5477205068  PROB      10              0.0000000000
       377        23  LEU       HB2             6.1532765717       -1.3469227314       -6.5357160400  PROB      10              0.0000000000
       378        23  LEU       CG              6.6722765717       -2.1339840032       -8.4294371268  PROB      10              0.0000000000
       379        23  LEU       HG              7.6252765717       -2.4489936230       -7.9243015613  PROB      10              0.0000000000
       380        23  LEU       CD1             6.3012765717       -3.3407984645       -9.3159182918  PROB      10              0.0000000000
       381        23  LEU       HD11            5.3122765717       -3.1992652721       -9.7924194517  PROB      10              0.0000000000
       382        23  LEU       HD12            7.0412765717       -3.4546934578      -10.1351459345  PROB      10              0.0000000000
       383        23  LEU       HD13            6.2762765717       -4.2890578454       -8.7484069292  PROB      10              0.0000000000
       384        23  LEU       CD2             7.0882765717       -0.8870948421       -9.2223686622  PROB      10              0.0000000000
       385        23  LEU       HD21            6.4202765717       -0.0274325478       -9.0162479699  PROB      10              0.0000000000
       386        23  LEU       HD22            8.1152765717       -0.5940874757       -8.9021988897  PROB      10              0.0000000000
       387        23  LEU       HD23            7.1412765717       -1.0905713410      -10.3022016652  PROB      10              0.0000000000
       388        23  LEU       C               3.2672765717       -2.5681910689       -8.2681168735  PROB      10              0.0000000000
       389        23  LEU       O               3.1422765717       -2.4439527300       -9.4831089867  PROB      10              0.0000000000
       390        24  TRP       N               2.5622765717       -3.4763177759       -7.5800137678  PROB      11              0.0000000000
       391        24  TRP       HN              2.6395807279       -3.6108331251       -6.5949566485  PROB      11              0.0000000000
       392        24  TRP       CA              1.6222765717       -4.3391879791       -8.2389287946  PROB      11              0.0000000000
       393        24  TRP       HA              1.6842765717       -4.2125295444       -9.3127680008  PROB      11              0.0000000000
       394        24  TRP       CB              1.9642765717       -5.8426076874       -8.0001209623  PROB      11              0.0000000000
       395        24  TRP       HB1             2.1088872664       -5.9897963653       -6.9067205187  PROB      11              0.0000000000
       396        24  TRP       HB2             2.0342765717       -6.0241409398       -6.9075800348  PROB      11              0.0000000000
       397        24  TRP       CG              3.2482765717       -6.3466797425       -8.6890341377  PROB      11              0.0000000000
       398        24  TRP       CD1             3.4032765717       -6.9350623660       -9.9195299273  PROB      11              0.0000000000
       399        24  TRP       HD1             2.6912765717       -6.9803750989      -10.7323175726  PROB      11              0.0000000000
       400        24  TRP       NE1             4.7182765717       -7.3311495041      -10.1025189408  PROB      11              0.0000000000
       401        24  TRP       HE1             5.1472765717       -7.6824478123      -10.9048745344  PROB      11              0.0000000000
       402        24  TRP       CE2             5.4492765717       -6.9634352117       -9.0096112598  PROB      11              0.0000000000
       403        24  TRP       CD2             4.5712765717       -6.3318076912       -8.1067293875  PROB      11              0.0000000000
       404        24  TRP       CE3             5.0512765717       -5.8471321912       -6.8983657586  PROB      11              0.0000000000
       405        24  TRP       HE3             4.3842765717       -5.3576265417       -6.2024654646  PROB      11              0.0000000000
       406        24  TRP       CZ3             6.4202765717       -6.0147733601       -6.6025255340  PROB      11              0.0000000000
       407        24  TRP       HZ3             6.6882765717       -5.8339229764       -5.5763027810  PROB      11              0.0000000000
       408        24  TRP       CZ2             6.8052765717       -7.1220324299       -8.7284068459  PROB      11              0.0000000000
       409        24  TRP       HZ2             7.4682765717       -7.6238421441       -9.4134623259  PROB      11              0.0000000000
       410        24  TRP       CH2             7.2832765717       -6.6603669986       -7.4894403292  PROB      11              0.0000000000
       411        24  TRP       HH2             8.3162765717       -6.8221576322       -7.2110291389  PROB      11              0.0000000000
       412        24  TRP       C               0.1672765717       -3.9826512104       -7.8979500084  PROB      11              0.0000000000
       413        24  TRP       O              -0.2607234283       -3.5079805062       -6.8392523545  PROB      11              0.0000000000
       414        25  LEU       N              -0.6877234283       -4.2958638129       -8.8652130883  PROB      12              0.0000000000
       415        25  LEU       HN             -0.3478785702       -4.5429434778       -9.7703437538  PROB      12              0.0000000000
       416        25  LEU       CA             -2.1087234283       -4.3189910404       -8.7464059701  PROB      12              0.0000000000
       417        25  LEU       HA             -2.4157234283       -4.1509116119       -7.7163228153  PROB      12              0.0000000000
       418        25  LEU       CB             -2.3637234283       -5.7585497761       -9.2314695188  PROB      12              0.0000000000
       419        25  LEU       HB1            -1.9072976730       -5.8502401590      -10.2440793417  PROB      12              0.0000000000
       420        25  LEU       HB2            -1.9017234283       -5.7876692335      -10.2517993954  PROB      12              0.0000000000
       421        25  LEU       CG             -3.7517234283       -6.3800002526       -9.3973890936  PROB      12              0.0000000000
       422        25  LEU       HG             -3.5637234283       -7.4630970375       -9.5875715178  PROB      12              0.0000000000
       423        25  LEU       CD1            -4.7987234283       -6.5325259717       -8.2757180612  PROB      12              0.0000000000
       424        25  LEU       HD11           -5.0287234283       -5.5396523598       -7.8459844336  PROB      12              0.0000000000
       425        25  LEU       HD12           -5.7297234283       -7.0191761503       -8.6290459595  PROB      12              0.0000000000
       426        25  LEU       HD13           -4.3757234283       -7.1460157361       -7.4529669998  PROB      12              0.0000000000
       427        25  LEU       CD2            -4.6447234283       -5.5924554245      -10.3600609711  PROB      12              0.0000000000
       428        25  LEU       HD21           -4.1277234283       -5.4530070897      -11.3325275062  PROB      12              0.0000000000
       429        25  LEU       HD22           -5.5937234283       -6.1365464844      -10.5381674519  PROB      12              0.0000000000
       430        25  LEU       HD23           -4.8817234283       -4.5847513187       -9.9483566656  PROB      12              0.0000000000
       431        25  LEU       C              -2.6267234283       -3.2150745942       -9.6690903581  PROB      12              0.0000000000
       432        25  LEU       O              -2.3757234283       -3.2164222770      -10.8736828966  PROB      12              0.0000000000
       433        26  TRP       N              -3.3217234283       -2.2197141878       -9.0972060504  PROB      13              0.0000000000
       434        26  TRP       HN             -3.5891294332       -2.2035432588       -8.1366643441  PROB      13              0.0000000000
       435        26  TRP       CA             -3.7387234283       -1.0714684665       -9.8665055782  PROB      13              0.0000000000
       436        26  TRP       HA             -3.6797234283       -1.2974241514      -10.9227868043  PROB      13              0.0000000000
       437        26  TRP       CB             -5.2277234283       -0.6878692507       -9.5854652936  PROB      13              0.0000000000
       438        26  TRP       HB1            -5.3396595577       -0.5368080441       -8.4887647397  PROB      13              0.0000000000
       439        26  TRP       HB2            -5.3527234283       -0.4799347686       -8.4989146729  PROB      13              0.0000000000
       440        26  TRP       CG             -6.2347234283       -1.7561734315      -10.0041431856  PROB      13              0.0000000000
       441        26  TRP       CD1            -6.8357234283       -1.9602718694      -11.2132225162  PROB      13              0.0000000000
       442        26  TRP       HD1            -6.6687234283       -1.3787910770      -12.1100034751  PROB      13              0.0000000000
       443        26  TRP       NE1            -7.6017234283       -3.1103149641      -11.1904655321  PROB      13              0.0000000000
       444        26  TRP       HE1            -8.1547234283       -3.3628923082      -11.9553221756  PROB      13              0.0000000000
       445        26  TRP       CE2            -7.5647234283       -3.6286682909       -9.9190608646  PROB      13              0.0000000000
       446        26  TRP       CD2            -6.7307234283       -2.7938474824       -9.1400074532  PROB      13              0.0000000000
       447        26  TRP       CE3            -6.4997234283       -3.0582165974       -7.7873622777  PROB      13              0.0000000000
       448        26  TRP       HE3            -5.8097234283       -2.4156839385       -7.2760797899  PROB      13              0.0000000000
       449        26  TRP       CZ3            -7.1267234283       -4.1727733102       -7.2187566728  PROB      13              0.0000000000
       450        26  TRP       HZ3            -6.9917234283       -4.3762656916       -6.1698482637  PROB      13              0.0000000000
       451        26  TRP       CZ2            -8.1627234283       -4.7530053459       -9.3618282500  PROB      13              0.0000000000
       452        26  TRP       HZ2            -8.8257234283       -5.4203516431       -9.8844810216  PROB      13              0.0000000000
       453        26  TRP       CH2            -7.9257234283       -5.0186363222       -7.9980741723  PROB      13              0.0000000000
       454        26  TRP       HH2            -8.3677234283       -5.9159696370       -7.5832996284  PROB      13              0.0000000000
       455        26  TRP       C              -2.8157234283        0.1253852850       -9.6237936143  PROB      13              0.0000000000
       456        26  TRP       O              -2.2307234283        0.3468189946       -8.5601944829  PROB      13              0.0000000000
       457        27  LEU       N              -2.7487234283        1.0086442257      -10.6239329265  PROB      14              0.0000000000
       458        27  LEU       HN             -3.1456304301        0.7048553821      -11.4876351787  PROB      14              0.0000000000
       459        27  LEU       CA             -2.1967234283        2.3310352836      -10.6622198677  PROB      14              0.0000000000
       460        27  LEU       HA             -1.9257234283        2.6268936696       -9.6547096615  PROB      14              0.0000000000
       461        27  LEU       CB             -3.4727234283        3.0662435101      -11.1784067173  PROB      14              0.0000000000
       462        27  LEU       HB1            -3.7940384332        2.5508305273      -12.1128671898  PROB      14              0.0000000000
       463        27  LEU       HB2            -3.7317234283        2.5995685232      -12.1624714797  PROB      14              0.0000000000
       464        27  LEU       CG             -3.5527234283        4.5606589023      -11.5519139270  PROB      14              0.0000000000
       465        27  LEU       HG             -4.6387234283        4.6943866091      -11.7853532134  PROB      14              0.0000000000
       466        27  LEU       CD1            -3.5707234283        5.6979258069      -10.4914065072  PROB      14              0.0000000000
       467        27  LEU       HD11           -2.8757234283        5.4566108465       -9.6634674455  PROB      14              0.0000000000
       468        27  LEU       HD12           -3.2927234283        6.6730160236      -10.9274146141  PROB      14              0.0000000000
       469        27  LEU       HD13           -4.5887234283        5.7935264285      -10.0508017851  PROB      14              0.0000000000
       470        27  LEU       CD2            -2.4467234283        5.0219986036      -12.4917775767  PROB      14              0.0000000000
       471        27  LEU       HD21           -2.4397234283        4.3944261679      -13.4089617665  PROB      14              0.0000000000
       472        27  LEU       HD22           -2.6067234283        6.0725437467      -12.8035417539  PROB      14              0.0000000000
       473        27  LEU       HD23           -1.4507234283        4.9503122392      -12.0049120253  PROB      14              0.0000000000
       474        27  LEU       C              -0.9417234283        2.3046640025      -11.5664745638  PROB      14              0.0000000000
       475        27  LEU       O              -1.0027234283        2.0023863088      -12.7599707707  PROB      14              0.0000000000
       476        28  TRP       N               0.2432765717        2.5779647167      -10.9713781686  PROB      15              0.0000000000
       477        28  TRP       HN              0.3065799196        2.8058547604      -10.0026332827  PROB      15              0.0000000000
       478        28  TRP       CA              1.5182765717        2.5631350064      -11.6879848109  PROB      15              0.0000000000
       479        28  TRP       HA              1.3212765717        2.5063365757      -12.7475559214  PROB      15              0.0000000000
       480        28  TRP       CB              2.3432765717        3.8583681096      -11.4578626511  PROB      15              0.0000000000
       481        28  TRP       HB1             2.4995519431        3.9728319081      -10.3621540506  PROB      15              0.0000000000
       482        28  TRP       HB2             2.5352765717        3.9571451247      -10.3700285179  PROB      15              0.0000000000
       483        28  TRP       CG              1.6672765717        5.1212757694      -11.9511954420  PROB      15              0.0000000000
       484        28  TRP       CD1             1.7062765717        5.6893897701      -13.1978639955  PROB      15              0.0000000000
       485        28  TRP       HD1             2.2232765717        5.2969051419      -14.0616092222  PROB      15              0.0000000000
       486        28  TRP       NE1             0.8722765717        6.7873431514      -13.2502125622  PROB      15              0.0000000000
       487        28  TRP       HE1             0.8532765717        7.4042372527      -14.0070438960  PROB      15              0.0000000000
       488        28  TRP       CE2             0.3182765717        6.9730895998      -12.0008194068  PROB      15              0.0000000000
       489        28  TRP       CD2             0.8002765717        5.9480504004      -11.1575729186  PROB      15              0.0000000000
       490        28  TRP       CE3             0.4092765717        5.8614822985       -9.8288400773  PROB      15              0.0000000000
       491        28  TRP       HE3             0.7692765717        5.0791362963       -9.1782098191  PROB      15              0.0000000000
       492        28  TRP       CZ3            -0.4927234283        6.8225019870       -9.3508744317  PROB      15              0.0000000000
       493        28  TRP       HZ3            -0.8677234283        6.7648791711       -8.3387772965  PROB      15              0.0000000000
       494        28  TRP       CZ2            -0.5697234283        7.9318469474      -11.5267114566  PROB      15              0.0000000000
       495        28  TRP       HZ2            -0.9677234283        8.6835927682      -12.1853184873  PROB      15              0.0000000000
       496        28  TRP       CH2            -0.9797234283        7.8400258915      -10.1866029186  PROB      15              0.0000000000
       497        28  TRP       HH2            -1.6817234283        8.5431423870       -9.7585466211  PROB      15              0.0000000000
       498        28  TRP       C               2.4082765717        1.3651889355      -11.3473248464  PROB      15              0.0000000000
       499        28  TRP       OT1             1.9782947744        0.5281351849      -10.5094366244  PROB      15              0.0000000000
       500        28  TRP       OT2             3.5261070914        1.2763936139      -11.9219293367  PROB      15              0.0000000000
       501        29  DOPC      N             -13.2246014869        0.4981767460       17.2500627408  MEMB      1               0.0000000000
       502        29  DOPC      C12           -13.6456425491       -0.0236871324       18.6136494226  MEMB      1               0.0000000000
       503        29  DOPC      H12A          -12.9817136032       -0.8046223627       18.9538528874  MEMB      1               0.0000000000
       504        29  DOPC      H12B          -14.6124311630       -0.4871907826       18.4837105996  MEMB      1               0.0000000000
       505        29  DOPC      C13           -13.2337879101       -0.6074813380       16.2385446343  MEMB      1               0.0000000000
       506        29  DOPC      H13A          -12.9316952292       -0.1457477496       15.3101362406  MEMB      1               0.0000000000
       507        29  DOPC      H13B          -12.5604551485       -1.4181868946       16.4747216020  MEMB      1               0.0000000000
       508        29  DOPC      H13C          -14.2049124948       -1.0797567474       16.2550724966  MEMB      1               0.0000000000
       509        29  DOPC      C14           -11.7856806920        0.7360740799       17.3792418050  MEMB      1               0.0000000000
       510        29  DOPC      H14A          -11.4565731994        1.2624710051       16.4955027075  MEMB      1               0.0000000000
       511        29  DOPC      H14B          -11.5918536140        1.3633200438       18.2367926868  MEMB      1               0.0000000000
       512        29  DOPC      H14C          -11.2297988503       -0.1750502960       17.5443108529  MEMB      1               0.0000000000
       513        29  DOPC      C15           -14.0006560813        1.7013931613       16.7974661790  MEMB      1               0.0000000000
       514        29  DOPC      H15A          -15.0225247866        1.3526100743       16.7743416210  MEMB      1               0.0000000000
       515        29  DOPC      H15B          -13.7047663142        1.9859155022       15.7985185656  MEMB      1               0.0000000000
       516        29  DOPC      H15C          -14.0135240794        2.4517042278       17.5741694235  MEMB      1               0.0000000000
       517        29  DOPC      C11           -13.8023018390        1.0638488613       19.7641696480  MEMB      1               0.0000000000
       518        29  DOPC      H11A          -14.7655768496        1.5779791950       19.5590057667  MEMB      1               0.0000000000
       519        29  DOPC      H11B          -13.9957287851        0.4997356408       20.7015507755  MEMB      1               0.0000000000
       520        29  DOPC      P             -12.9755158824        3.3499053016       20.6210180098  MEMB      1               0.0000000000
       521        29  DOPC      O13           -12.9033634721        3.1176284768       22.0769499221  MEMB      1               0.0000000000
       522        29  DOPC      O14           -14.2144297244        4.0341727413       20.1776510004  MEMB      1               0.0000000000
       523        29  DOPC      O12           -12.6761774950        2.0099669293       19.8757069232  MEMB      1               0.0000000000
       524        29  DOPC      O11           -11.7450444750        4.2127573709       20.2055396913  MEMB      1               0.0000000000
       525        29  DOPC      C1            -10.7769824197        4.1956378656       19.2196726083  MEMB      1               0.0000000000
       526        29  DOPC      HA            -10.7529391082        3.1866179966       18.7553215718  MEMB      1               0.0000000000
       527        29  DOPC      HB             -9.8125123650        4.4530000649       19.7074052259  MEMB      1               0.0000000000
       528        29  DOPC      C2            -11.0365931217        5.3575695667       18.1943569876  MEMB      1               0.0000000000
       529        29  DOPC      HS            -10.9133125044        6.3112521522       18.7507854516  MEMB      1               0.0000000000
       530        29  DOPC      O21           -12.3614166555        5.1942612493       17.6404111055  MEMB      1               0.0000000000
       531        29  DOPC      C21           -12.8260264412        6.1048514802       16.6715722281  MEMB      1               0.0000000000
       532        29  DOPC      O22           -12.3960595857        7.2145655459       16.4762393533  MEMB      1               0.0000000000
       533        29  DOPC      C22           -14.0051508143        5.4278421381       15.9869823309  MEMB      1               0.0000000000
       534        29  DOPC      H2R           -14.8539486228        5.5493565274       16.6934508052  MEMB      1               0.0000000000
       535        29  DOPC      H2S           -13.8038020178        4.3369737209       15.9254526949  MEMB      1               0.0000000000
       536        29  DOPC      C3             -9.9854631838        5.1804756051       17.0347303474  MEMB      1               0.0000000000
       537        29  DOPC      HX             -8.9529251880        5.5022734938       17.2889595390  MEMB      1               0.0000000000
       538        29  DOPC      HY            -10.2531650998        5.8208199895       16.1671961474  MEMB      1               0.0000000000
       539        29  DOPC      O31           -10.0506674468        3.7949816023       16.6441670030  MEMB      1               0.0000000000
       540        29  DOPC      C31            -9.2132361854        3.5890722017       15.5501951849  MEMB      1               0.0000000000
       541        29  DOPC      O32            -8.6437894987        4.4440521139       14.9513474171  MEMB      1               0.0000000000
       542        29  DOPC      C32            -9.0717964887        2.0384314247       15.3966968786  MEMB      1               0.0000000000
       543        29  DOPC      H2X            -8.7796930675        1.6828462230       16.4079117914  MEMB      1               0.0000000000
       544        29  DOPC      H2Y           -10.0666951879        1.6112948902       15.1475945182  MEMB      1               0.0000000000
       545        29  DOPC      C23           -14.3637563699        6.0450338051       14.6503568735  MEMB      1               0.0000000000
       546        29  DOPC      H3R           -14.5675365030        7.1371827378       14.6525675682  MEMB      1               0.0000000000
       547        29  DOPC      H3S           -15.3849725834        5.6311383290       14.5084811453  MEMB      1               0.0000000000
       548        29  DOPC      C24           -13.4074602804        5.7646953098       13.4662497157  MEMB      1               0.0000000000
       549        29  DOPC      H4R           -12.4023009142        6.2099594194       13.6266104963  MEMB      1               0.0000000000
       550        29  DOPC      H4S           -13.8159400599        6.1322524016       12.5006580422  MEMB      1               0.0000000000
       551        29  DOPC      C25           -13.1115002740        4.2576916384       13.2969242867  MEMB      1               0.0000000000
       552        29  DOPC      H5R           -12.3215508212        4.0291850583       14.0439752964  MEMB      1               0.0000000000
       553        29  DOPC      H5S           -12.6509011658        4.1781821805       12.2890318668  MEMB      1               0.0000000000
       554        29  DOPC      C26           -14.2624356553        3.2973974478       13.2106569142  MEMB      1               0.0000000000
       555        29  DOPC      H6R           -15.0371211436        3.5180867346       12.4454903968  MEMB      1               0.0000000000
       556        29  DOPC      H6S           -14.7091824102        3.4815928077       14.2110617906  MEMB      1               0.0000000000
       557        29  DOPC      C27           -13.7890417384        1.7871141398       13.1828081526  MEMB      1               0.0000000000
       558        29  DOPC      H7R           -14.5759636284        1.0865068316       13.5352629972  MEMB      1               0.0000000000
       559        29  DOPC      H7S           -12.8928002149        1.8015447619       13.8392104866  MEMB      1               0.0000000000
       560        29  DOPC      C28           -13.2891575833        1.3176262009       11.7324924852  MEMB      1               0.0000000000
       561        29  DOPC      H8R           -12.5479818317        2.1012161131       11.4660975175  MEMB      1               0.0000000000
       562        29  DOPC      H8S           -14.1569673093        1.6136673902       11.1051278423  MEMB      1               0.0000000000
       563        29  DOPC      C29           -12.8579716205       -0.1158001385       11.4932484744  MEMB      1               0.0000000000
       564        29  DOPC      H9R           -12.2269921832       -0.5392087179       12.2886040970  MEMB      1               0.0000000000
       565        29  DOPC      C210          -12.9282200375       -0.8996599117       10.3784466252  MEMB      1               0.0000000000
       566        29  DOPC      H10R          -12.3987312823       -1.8634089181       10.4072464774  MEMB      1               0.0000000000
       567        29  DOPC      C211          -13.5111059672       -0.6383329592        8.9672068409  MEMB      1               0.0000000000
       568        29  DOPC      H11R          -13.9278212732        0.3914151359        8.9841817810  MEMB      1               0.0000000000
       569        29  DOPC      H11S          -14.1647165157       -1.3978106104        8.4873033167  MEMB      1               0.0000000000
       570        29  DOPC      C212          -12.4071880537       -0.6448455941        7.8143169995  MEMB      1               0.0000000000
       571        29  DOPC      H12R          -11.7321445551       -1.4782953001        8.1041426110  MEMB      1               0.0000000000
       572        29  DOPC      H12S          -11.7924345882        0.2779481155        7.8839658697  MEMB      1               0.0000000000
       573        29  DOPC      C213          -12.9743376597       -0.6815877809        6.4677762982  MEMB      1               0.0000000000
       574        29  DOPC      H13R          -12.2385854355       -0.3438030465        5.7069269000  MEMB      1               0.0000000000
       575        29  DOPC      H13S          -13.8565871773       -0.0082465723        6.4170961214  MEMB      1               0.0000000000
       576        29  DOPC      C214          -13.3850574167       -2.1476162702        6.0352925015  MEMB      1               0.0000000000
       577        29  DOPC      H14R          -14.2848481660       -2.4308459753        6.6222153691  MEMB      1               0.0000000000
       578        29  DOPC      H14S          -12.4590366669       -2.7427222113        6.1858110536  MEMB      1               0.0000000000
       579        29  DOPC      C215          -13.6098324363       -2.2439042320        4.5273388620  MEMB      1               0.0000000000
       580        29  DOPC      H15R          -12.8735191345       -1.8101403779        3.8174002254  MEMB      1               0.0000000000
       581        29  DOPC      H15S          -14.4347036935       -1.5224519325        4.3445415527  MEMB      1               0.0000000000
       582        29  DOPC      C216          -13.8371502328       -3.6746992103        4.0678131389  MEMB      1               0.0000000000
       583        29  DOPC      H16R          -13.9417883894       -4.3308334647        4.9582401506  MEMB      1               0.0000000000
       584        29  DOPC      H16S          -12.9191732120       -4.0178330024        3.5444600011  MEMB      1               0.0000000000
       585        29  DOPC      C217          -14.9485191788       -3.9962826335        2.9260931601  MEMB      1               0.0000000000
       586        29  DOPC      H17R          -15.1001263387       -5.0955354167        2.9806771261  MEMB      1               0.0000000000
       587        29  DOPC      H17S          -14.3660033444       -3.6800491040        2.0344702638  MEMB      1               0.0000000000
       588        29  DOPC      C218          -16.2720988805       -3.2744349994        3.0565131544  MEMB      1               0.0000000000
       589        29  DOPC      H18R          -16.7517317597       -3.4765304152        4.0380578310  MEMB      1               0.0000000000
       590        29  DOPC      H18S          -17.0279005006       -3.5484091445        2.2896858424  MEMB      1               0.0000000000
       591        29  DOPC      H18T          -16.1587386026       -2.1866176236        2.8612610075  MEMB      1               0.0000000000
       592        29  DOPC      C33            -8.0571058497        1.6206567984       14.3272689142  MEMB      1               0.0000000000
       593        29  DOPC      H3X            -7.9266225245        0.5182005885       14.2838476141  MEMB      1               0.0000000000
       594        29  DOPC      H3Y            -7.1318679150        2.2206952955       14.4622116768  MEMB      1               0.0000000000
       595        29  DOPC      C34            -8.5415280013        1.9202353350       12.8764027177  MEMB      1               0.0000000000
       596        29  DOPC      H4X            -7.6249865743        1.7033282726       12.2871456843  MEMB      1               0.0000000000
       597        29  DOPC      H4Y            -8.7964288122        2.9972103898       12.9737228139  MEMB      1               0.0000000000
       598        29  DOPC      C35            -9.6494861231        1.0971831095       12.3030024145  MEMB      1               0.0000000000
       599        29  DOPC      H5X           -10.6280307795        1.5422864364       12.5834566911  MEMB      1               0.0000000000
       600        29  DOPC      H5Y            -9.5249721625        0.0522342235       12.6592312292  MEMB      1               0.0000000000
       601        29  DOPC      C36            -9.5921431321        1.0567433157       10.7623880004  MEMB      1               0.0000000000
       602        29  DOPC      H6X            -8.7771483481        0.3361249343       10.5369703595  MEMB      1               0.0000000000
       603        29  DOPC      H6Y           -10.4050772775        0.5376839190       10.2109930729  MEMB      1               0.0000000000
       604        29  DOPC      C37            -9.4061884117        2.4148146192       10.0777022612  MEMB      1               0.0000000000
       605        29  DOPC      H7X            -8.4750168310        2.8409499114       10.5085730913  MEMB      1               0.0000000000
       606        29  DOPC      H7Y            -9.3127948582        2.2169606969        8.9884588200  MEMB      1               0.0000000000
       607        29  DOPC      C38           -10.4592299280        3.5453278886       10.2682945998  MEMB      1               0.0000000000
       608        29  DOPC      H8X           -10.6495497202        3.5933487989       11.3618177292  MEMB      1               0.0000000000
       609        29  DOPC      H8Y           -11.3991307875        3.2594855552        9.7494489000  MEMB      1               0.0000000000
       610        29  DOPC      C39           -10.1040248053        4.9981338332        9.9091596324  MEMB      1               0.0000000000
       611        29  DOPC      H9X            -9.2578948752        5.2974085858       10.5451622710  MEMB      1               0.0000000000
       612        29  DOPC      C310          -10.4146662298        5.6664103464        8.8144955629  MEMB      1               0.0000000000
       613        29  DOPC      H10X          -10.0281778455        6.6833597471        8.6518921065  MEMB      1               0.0000000000
       614        29  DOPC      C311          -11.2318701819        5.2400792405        7.5808551510  MEMB      1               0.0000000000
       615        29  DOPC      H11X          -11.7477206006        6.1271993761        7.1551352354  MEMB      1               0.0000000000
       616        29  DOPC      H11Y          -12.0758775287        4.5971649490        7.9104511462  MEMB      1               0.0000000000
       617        29  DOPC      C312          -10.4371489661        4.5311629489        6.5264520903  MEMB      1               0.0000000000
       618        29  DOPC      H12X          -10.0723538767        3.5122864477        6.7777212048  MEMB      1               0.0000000000
       619        29  DOPC      H12Y           -9.5853985037        5.0896567752        6.0826868395  MEMB      1               0.0000000000
       620        29  DOPC      C313          -11.3506463794        4.1744030811        5.1993704611  MEMB      1               0.0000000000
       621        29  DOPC      H13X          -10.6475056576        3.5863698181        4.5715725745  MEMB      1               0.0000000000
       622        29  DOPC      H13Y          -12.0703480570        3.5017686392        5.7130960150  MEMB      1               0.0000000000
       623        29  DOPC      C314          -11.7430025307        5.4166018161        4.4096085675  MEMB      1               0.0000000000
       624        29  DOPC      H14X          -12.3479922739        6.1243473457        5.0157476431  MEMB      1               0.0000000000
       625        29  DOPC      H14Y          -10.8244932519        6.0039016605        4.1957396414  MEMB      1               0.0000000000
       626        29  DOPC      C315          -12.5750051308        5.1078791554        3.1084407826  MEMB      1               0.0000000000
       627        29  DOPC      H15X          -12.1143350372        4.3140617375        2.4823742061  MEMB      1               0.0000000000
       628        29  DOPC      H15Y          -12.7463115242        6.0592723330        2.5608761212  MEMB      1               0.0000000000
       629        29  DOPC      C316          -13.9941231309        4.5764174213        3.4573816087  MEMB      1               0.0000000000
       630        29  DOPC      H16X          -13.9077272451        3.7170237574        4.1561665236  MEMB      1               0.0000000000
       631        29  DOPC      H16Y          -14.5357166705        5.4017695773        3.9670790229  MEMB      1               0.0000000000
       632        29  DOPC      C317          -14.8066973508        4.1822247930        2.2045939593  MEMB      1               0.0000000000
       633        29  DOPC      H17X          -14.1667764091        3.4180915972        1.7137554115  MEMB      1               0.0000000000
       634        29  DOPC      H17Y          -15.7891746670        3.8223830786        2.5781907888  MEMB      1               0.0000000000
       635        29  DOPC      C318          -15.1078085508        5.2045642415        1.1056751029  MEMB      1               0.0000000000
       636        29  DOPC      H18X          -16.0203840972        4.8843223025        0.5588920713  MEMB      1               0.0000000000
       637        29  DOPC      H18Y          -15.3475379244        6.1497544446        1.6380923457  MEMB      1               0.0000000000
       638        29  DOPC      H18Z          -14.2445586279        5.3016643960        0.4130772534  MEMB      1               0.0000000000
       639        30  DOPC      N               2.0950398192       10.8510949304       18.8930052487  MEMB      2               0.0000000000
       640        30  DOPC      C12             1.1410832042       10.1236224240       19.7424525870  MEMB      2               0.0000000000
       641        30  DOPC      H12A            0.9103375644       10.7034412695       20.6239096158  MEMB      2               0.0000000000
       642        30  DOPC      H12B            1.5433881092        9.2069825598       20.1478190941  MEMB      2               0.0000000000
       643        30  DOPC      C13             2.5624430284        9.8849446837       17.7391118635  MEMB      2               0.0000000000
       644        30  DOPC      H13A            1.7503290381        9.8632394256       17.0274941337  MEMB      2               0.0000000000
       645        30  DOPC      H13B            3.4725298140       10.2223304077       17.2654954102  MEMB      2               0.0000000000
       646        30  DOPC      H13C            2.7933469043        8.9319886264       18.1918350137  MEMB      2               0.0000000000
       647        30  DOPC      C14             3.2846041319       11.1355165214       19.7710108609  MEMB      2               0.0000000000
       648        30  DOPC      H14A            3.6777102454       10.2613400742       20.2686885489  MEMB      2               0.0000000000
       649        30  DOPC      H14B            4.0029964184       11.5342406965       19.0700602972  MEMB      2               0.0000000000
       650        30  DOPC      H14C            3.1015943386       11.8536656718       20.5566120254  MEMB      2               0.0000000000
       651        30  DOPC      C15             1.4980675605       12.0890979984       18.2370729321  MEMB      2               0.0000000000
       652        30  DOPC      H15A            0.8917209293       11.7683572148       17.4028852041  MEMB      2               0.0000000000
       653        30  DOPC      H15B            2.3174542389       12.6424555900       17.8025610175  MEMB      2               0.0000000000
       654        30  DOPC      H15C            0.8983811151       12.6512409452       18.9376238554  MEMB      2               0.0000000000
       655        30  DOPC      C11            -0.2529279593        9.7090285117       19.0883146774  MEMB      2               0.0000000000
       656        30  DOPC      H11A            0.1080678534        9.0150337491       18.2994076666  MEMB      2               0.0000000000
       657        30  DOPC      H11B           -0.8687061128        9.1963131881       19.8578998327  MEMB      2               0.0000000000
       658        30  DOPC      P              -2.0770611954       11.7171575568       19.1597854348  MEMB      2               0.0000000000
       659        30  DOPC      O13            -1.8074676287       13.1248194986       18.7986135882  MEMB      2               0.0000000000
       660        30  DOPC      O14            -2.0437874460       11.3198037050       20.5938343284  MEMB      2               0.0000000000
       661        30  DOPC      O12            -1.0423866278       10.7480359162       18.4455720001  MEMB      2               0.0000000000
       662        30  DOPC      O11            -3.4392367554       11.3060842540       18.5312264843  MEMB      2               0.0000000000
       663        30  DOPC      C1             -3.9288592844        9.9388033676       18.5354805735  MEMB      2               0.0000000000
       664        30  DOPC      HA             -4.9174101812       10.0100971128       19.0374814953  MEMB      2               0.0000000000
       665        30  DOPC      HB             -3.3676754196        9.2678854374       19.2205082174  MEMB      2               0.0000000000
       666        30  DOPC      C2             -4.0644192166        9.4118499921       17.1712282501  MEMB      2               0.0000000000
       667        30  DOPC      HS             -4.4130173524        8.3600008045       17.2513136408  MEMB      2               0.0000000000
       668        30  DOPC      O21            -2.8144225176        9.4165319392       16.4727326298  MEMB      2               0.0000000000
       669        30  DOPC      C21            -2.2131799986        8.2345235075       16.5390892805  MEMB      2               0.0000000000
       670        30  DOPC      O22            -2.5540812372        7.1650185560       17.0691297761  MEMB      2               0.0000000000
       671        30  DOPC      C22            -1.0268094340        8.2745460729       15.6029714644  MEMB      2               0.0000000000
       672        30  DOPC      H2R            -0.1970799683        7.5734736863       15.8361392345  MEMB      2               0.0000000000
       673        30  DOPC      H2S            -0.6819908423        9.3243050320       15.4870943701  MEMB      2               0.0000000000
       674        30  DOPC      C3             -5.0555302740       10.2184262986       16.3564061102  MEMB      2               0.0000000000
       675        30  DOPC      HX             -5.9673898799       10.3280290736       16.9815624563  MEMB      2               0.0000000000
       676        30  DOPC      HY             -5.3294760407        9.7718707801       15.3766803307  MEMB      2               0.0000000000
       677        30  DOPC      O31            -4.5400497689       11.5615184751       16.0895467742  MEMB      2               0.0000000000
       678        30  DOPC      C31            -4.0591770388       11.7945420124       14.8247848212  MEMB      2               0.0000000000
       679        30  DOPC      O32            -4.0319518407       10.9633480964       13.9341511946  MEMB      2               0.0000000000
       680        30  DOPC      C32            -3.6951222404       13.2226091874       14.5898587775  MEMB      2               0.0000000000
       681        30  DOPC      H2X            -3.8263593087       13.7448013341       15.5616675858  MEMB      2               0.0000000000
       682        30  DOPC      H2Y            -2.6249017654       13.3231109968       14.3090583422  MEMB      2               0.0000000000
       683        30  DOPC      C23            -1.4401630298        7.7899858544       14.1544079725  MEMB      2               0.0000000000
       684        30  DOPC      H3R            -2.2130485705        8.4854644377       13.7629002386  MEMB      2               0.0000000000
       685        30  DOPC      H3S            -1.9236753301        6.7966576863       14.2720324979  MEMB      2               0.0000000000
       686        30  DOPC      C24            -0.1713045884        7.8138133873       13.2832570393  MEMB      2               0.0000000000
       687        30  DOPC      H4R             0.4775712430        7.0219228263       13.7147553237  MEMB      2               0.0000000000
       688        30  DOPC      H4S             0.2499816737        8.8417646611       13.2957119242  MEMB      2               0.0000000000
       689        30  DOPC      C25            -0.3765081457        7.4791116093       11.8088161387  MEMB      2               0.0000000000
       690        30  DOPC      H5R            -0.9788340841        6.5550069421       11.6763222529  MEMB      2               0.0000000000
       691        30  DOPC      H5S             0.5747746389        7.2913166855       11.2664920954  MEMB      2               0.0000000000
       692        30  DOPC      C26            -1.1441846072        8.6161495485       11.0004319145  MEMB      2               0.0000000000
       693        30  DOPC      H6R            -2.1011858493        8.8326898949       11.5215653700  MEMB      2               0.0000000000
       694        30  DOPC      H6S            -1.4041722054        8.2459071010        9.9857163060  MEMB      2               0.0000000000
       695        30  DOPC      C27            -0.3704984115        9.9478399285       10.8401916403  MEMB      2               0.0000000000
       696        30  DOPC      H7R             0.5568855512        9.5629558072       10.3646449806  MEMB      2               0.0000000000
       697        30  DOPC      H7S             0.0000117051       10.3659903509       11.8005003458  MEMB      2               0.0000000000
       698        30  DOPC      C28            -0.9247095794       11.0236879141        9.9517718145  MEMB      2               0.0000000000
       699        30  DOPC      H8R            -1.1314990167       10.4438289083        9.0269349556  MEMB      2               0.0000000000
       700        30  DOPC      H8S            -0.1557205242       11.8055903910        9.7739919538  MEMB      2               0.0000000000
       701        30  DOPC      C29            -2.1195749706       11.7610050112       10.4861580027  MEMB      2               0.0000000000
       702        30  DOPC      H9R            -1.8972761656       12.4136128893       11.3432965312  MEMB      2               0.0000000000
       703        30  DOPC      C210           -3.3150808567       11.6351085433        9.9444529292  MEMB      2               0.0000000000
       704        30  DOPC      H10R           -4.1005252666       12.3039234153       10.3262427895  MEMB      2               0.0000000000
       705        30  DOPC      C211           -3.5992569233       10.7382329222        8.7783298143  MEMB      2               0.0000000000
       706        30  DOPC      H11R           -3.6383425810        9.6514304436        9.0056041455  MEMB      2               0.0000000000
       707        30  DOPC      H11S           -2.7534192830       10.8549945372        8.0675230160  MEMB      2               0.0000000000
       708        30  DOPC      C212           -5.0967806053       11.0058629836        8.1696689832  MEMB      2               0.0000000000
       709        30  DOPC      H12R           -5.1420808811       12.0379287797        7.7608788396  MEMB      2               0.0000000000
       710        30  DOPC      H12S           -5.7770556583       11.0321864994        9.0476516339  MEMB      2               0.0000000000
       711        30  DOPC      C213           -5.6135471894        9.9583312412        7.1855016568  MEMB      2               0.0000000000
       712        30  DOPC      H13R           -6.7060910753        9.8540967984        7.0128648872  MEMB      2               0.0000000000
       713        30  DOPC      H13S           -5.3744468615        9.0363576293        7.7574429917  MEMB      2               0.0000000000
       714        30  DOPC      C214           -4.7901126581       10.0667585479        5.8100058195  MEMB      2               0.0000000000
       715        30  DOPC      H14R           -4.5432704270       11.1099655631        5.5182721272  MEMB      2               0.0000000000
       716        30  DOPC      H14S           -5.4108571211        9.5532483697        5.0449537796  MEMB      2               0.0000000000
       717        30  DOPC      C215           -3.5470923560        9.2274011488        5.7550076103  MEMB      2               0.0000000000
       718        30  DOPC      H15R           -3.8658422115        8.1762837098        5.9219562461  MEMB      2               0.0000000000
       719        30  DOPC      H15S           -2.7531192222        9.4388240887        6.5028240034  MEMB      2               0.0000000000
       720        30  DOPC      C216           -2.8622039330        9.3031543601        4.3771730633  MEMB      2               0.0000000000
       721        30  DOPC      H16R           -3.4825794333        8.8811413963        3.5578067375  MEMB      2               0.0000000000
       722        30  DOPC      H16S           -1.9908478457        8.6259378069        4.5053809449  MEMB      2               0.0000000000
       723        30  DOPC      C217           -2.4343820565       10.7283981530        3.8772002517  MEMB      2               0.0000000000
       724        30  DOPC      H17R           -1.7638149121       11.1234583281        4.6700359342  MEMB      2               0.0000000000
       725        30  DOPC      H17S           -3.2715601344       11.4513661986        3.7734172898  MEMB      2               0.0000000000
       726        30  DOPC      C218           -1.6575299056       10.7372902505        2.4780313295  MEMB      2               0.0000000000
       727        30  DOPC      H18R           -2.3760688953       10.6676154068        1.6335389452  MEMB      2               0.0000000000
       728        30  DOPC      H18S           -0.8743239185        9.9516691281        2.5389383917  MEMB      2               0.0000000000
       729        30  DOPC      H18T           -1.0985106933       11.6904596272        2.3627666018  MEMB      2               0.0000000000
       730        30  DOPC      C33            -4.6005991254       13.7949644158       13.4457772055  MEMB      2               0.0000000000
       731        30  DOPC      H3X            -5.6487797115       13.7372991310       13.8095248469  MEMB      2               0.0000000000
       732        30  DOPC      H3Y            -4.5081814231       13.1422616476       12.5514845614  MEMB      2               0.0000000000
       733        30  DOPC      C34            -4.2885826672       15.3063288997       13.1320585685  MEMB      2               0.0000000000
       734        30  DOPC      H4X            -3.9039362028       15.7546392835       14.0730079852  MEMB      2               0.0000000000
       735        30  DOPC      H4Y            -5.1108849578       15.8885559740       12.6639212334  MEMB      2               0.0000000000
       736        30  DOPC      C35            -3.0577189078       15.6389900293       12.3310095163  MEMB      2               0.0000000000
       737        30  DOPC      H5X            -2.3305856683       14.8104989287       12.4695768958  MEMB      2               0.0000000000
       738        30  DOPC      H5Y            -2.6993292077       16.6357718834       12.6661278132  MEMB      2               0.0000000000
       739        30  DOPC      C36            -3.3887178753       15.6124691804       10.8348459063  MEMB      2               0.0000000000
       740        30  DOPC      H6X            -3.4818430484       14.5665039464       10.4720713787  MEMB      2               0.0000000000
       741        30  DOPC      H6Y            -4.3519497952       16.1296005321       10.6371583823  MEMB      2               0.0000000000
       742        30  DOPC      C37            -2.1384679683       16.2822745565       10.1828353254  MEMB      2               0.0000000000
       743        30  DOPC      H7X            -2.0096099142       17.3466819588       10.4739602031  MEMB      2               0.0000000000
       744        30  DOPC      H7Y            -1.1663098576       15.8121700173       10.4440461251  MEMB      2               0.0000000000
       745        30  DOPC      C38            -2.4195650176       16.3370415346        8.6845334372  MEMB      2               0.0000000000
       746        30  DOPC      H8X            -1.5750273150       16.9773571639        8.3512579534  MEMB      2               0.0000000000
       747        30  DOPC      H8Y            -3.3791610296       16.8016210844        8.3720244443  MEMB      2               0.0000000000
       748        30  DOPC      C39            -2.1081991659       14.9700077270        8.1511287845  MEMB      2               0.0000000000
       749        30  DOPC      H9X            -1.3694192623       14.3353859015        8.6624588482  MEMB      2               0.0000000000
       750        30  DOPC      C310           -2.4588421322       14.5751573050        6.9552313919  MEMB      2               0.0000000000
       751        30  DOPC      H10X           -2.3113333557       13.5106313488        6.7206556048  MEMB      2               0.0000000000
       752        30  DOPC      C311           -3.1675003304       15.2132732153        5.8391478101  MEMB      2               0.0000000000
       753        30  DOPC      H11X           -3.8138736290       16.0633125163        6.1456700619  MEMB      2               0.0000000000
       754        30  DOPC      H11Y           -3.9607447469       14.5004366325        5.5277825125  MEMB      2               0.0000000000
       755        30  DOPC      C312           -2.2987423843       15.6197810549        4.6179004138  MEMB      2               0.0000000000
       756        30  DOPC      H12X           -1.2801527780       15.8575053879        4.9924439560  MEMB      2               0.0000000000
       757        30  DOPC      H12Y           -2.7233524667       16.5087191602        4.1042692957  MEMB      2               0.0000000000
       758        30  DOPC      C313           -2.2715865008       14.4775647581        3.6162884389  MEMB      2               0.0000000000
       759        30  DOPC      H13X           -1.6669985727       13.6431885574        4.0317525528  MEMB      2               0.0000000000
       760        30  DOPC      H13Y           -3.2822798259       14.0593255613        3.4216188585  MEMB      2               0.0000000000
       761        30  DOPC      C314           -1.6363124098       14.7978571080        2.2154897657  MEMB      2               0.0000000000
       762        30  DOPC      H14X           -1.7586245835       13.9350041679        1.5263991691  MEMB      2               0.0000000000
       763        30  DOPC      H14Y           -2.2960126265       15.6228687239        1.8712917801  MEMB      2               0.0000000000
       764        30  DOPC      C315           -0.1493367737       15.2589028493        2.1810409191  MEMB      2               0.0000000000
       765        30  DOPC      H15X           -0.0484764175       16.1876341885        2.7823775223  MEMB      2               0.0000000000
       766        30  DOPC      H15Y            0.1795993310       15.5719032603        1.1670622556  MEMB      2               0.0000000000
       767        30  DOPC      C316            0.8375804982       14.1448819532        2.6234644901  MEMB      2               0.0000000000
       768        30  DOPC      H16X            0.7490565770       13.8733596426        3.6971303183  MEMB      2               0.0000000000
       769        30  DOPC      H16Y            0.5258971319       13.2346545602        2.0678910401  MEMB      2               0.0000000000
       770        30  DOPC      C317            2.3289842866       14.5090779030        2.2852297384  MEMB      2               0.0000000000
       771        30  DOPC      H17X            2.4201275027       14.9140537848        1.2546903725  MEMB      2               0.0000000000
       772        30  DOPC      H17Y            2.7277123996       15.3839024259        2.8420217448  MEMB      2               0.0000000000
       773        30  DOPC      C318            3.2309880601       13.3009261890        2.4078932350  MEMB      2               0.0000000000
       774        30  DOPC      H18X            4.2717551928       13.6609076378        2.5546494019  MEMB      2               0.0000000000
       775        30  DOPC      H18Y            2.9967409672       12.8299961090        3.3865009424  MEMB      2               0.0000000000
       776        30  DOPC      H18Z            3.1170782147       12.6305777702        1.5292699919  MEMB      2               0.0000000000
       777        31  DOPC      N               4.3433352699       -9.9828081337       20.0386140743  MEMB      3               0.0000000000
       778        31  DOPC      C12             5.5885485961       -9.7006109648       19.1915325039  MEMB      3               0.0000000000
       779        31  DOPC      H12A            6.4483816858       -9.5801407887       19.8338516767  MEMB      3               0.0000000000
       780        31  DOPC      H12B            5.3940461542       -8.7856242734       18.6517472391  MEMB      3               0.0000000000
       781        31  DOPC      C13             4.4857385754      -11.2233852269       20.9819395154  MEMB      3               0.0000000000
       782        31  DOPC      H13A            3.5849018163      -11.2318602863       21.5776082813  MEMB      3               0.0000000000
       783        31  DOPC      H13B            4.4688764191      -12.1247434778       20.3872388130  MEMB      3               0.0000000000
       784        31  DOPC      H13C            5.3563621086      -11.2115871969       21.6209040033  MEMB      3               0.0000000000
       785        31  DOPC      C14             3.1472282843      -10.1451544924       19.2022957461  MEMB      3               0.0000000000
       786        31  DOPC      H14A            2.9011092243       -9.1911703951       18.7598708057  MEMB      3               0.0000000000
       787        31  DOPC      H14B            3.2345261654      -10.8490666305       18.3878715169  MEMB      3               0.0000000000
       788        31  DOPC      H14C            2.3175505337      -10.4962490074       19.7979193188  MEMB      3               0.0000000000
       789        31  DOPC      C15             4.0753107341       -8.7311186681       20.8541274681  MEMB      3               0.0000000000
       790        31  DOPC      H15A            4.3343275901       -7.8308922163       20.3166308377  MEMB      3               0.0000000000
       791        31  DOPC      H15B            4.6615037596       -8.7902429414       21.7592693896  MEMB      3               0.0000000000
       792        31  DOPC      H15C            3.0164664541       -8.6324279449       21.0425657444  MEMB      3               0.0000000000
       793        31  DOPC      C11             5.9098180385      -10.7915819573       18.0161808013  MEMB      3               0.0000000000
       794        31  DOPC      H11A            5.1030633410      -10.8045911279       17.2524408950  MEMB      3               0.0000000000
       795        31  DOPC      H11B            6.8490009715      -10.5792818545       17.4619380174  MEMB      3               0.0000000000
       796        31  DOPC      P               5.2621024814      -13.3801012905       18.1898687186  MEMB      3               0.0000000000
       797        31  DOPC      O13             3.8169190741      -13.2877270252       18.4009240063  MEMB      3               0.0000000000
       798        31  DOPC      O14             6.0284379838      -14.4958849894       18.7958877129  MEMB      3               0.0000000000
       799        31  DOPC      O12             5.9629711866      -12.0177826699       18.6118586498  MEMB      3               0.0000000000
       800        31  DOPC      O11             5.7009393803      -13.4019745831       16.7167707943  MEMB      3               0.0000000000
       801        31  DOPC      C1              7.0027720088      -13.8803789601       16.3164192194  MEMB      3               0.0000000000
       802        31  DOPC      HA              7.4041843827      -14.7865694445       16.8184231150  MEMB      3               0.0000000000
       803        31  DOPC      HB              7.6404240342      -13.0002343988       16.5467806686  MEMB      3               0.0000000000
       804        31  DOPC      C2              7.1356811309      -14.0755544659       14.7852379260  MEMB      3               0.0000000000
       805        31  DOPC      HS              6.9545224170      -13.0771832596       14.3327367371  MEMB      3               0.0000000000
       806        31  DOPC      O21             6.0545573844      -15.0232658274       14.4310552482  MEMB      3               0.0000000000
       807        31  DOPC      C21             5.0015827369      -14.4754958390       13.7575612546  MEMB      3               0.0000000000
       808        31  DOPC      O22             5.0557482588      -13.3854427997       13.2129358293  MEMB      3               0.0000000000
       809        31  DOPC      C22             3.8623198640      -15.4626423901       13.6419669057  MEMB      3               0.0000000000
       810        31  DOPC      H2R             3.2452113184      -15.2863929069       14.5488483491  MEMB      3               0.0000000000
       811        31  DOPC      H2S             4.1551092584      -16.5218599754       13.8052254335  MEMB      3               0.0000000000
       812        31  DOPC      C3              8.5343640270      -14.6586389452       14.4116588467  MEMB      3               0.0000000000
       813        31  DOPC      HX              8.6511130784      -15.7244974443       14.7025821528  MEMB      3               0.0000000000
       814        31  DOPC      HY              9.3649778432      -14.0581697006       14.8404226108  MEMB      3               0.0000000000
       815        31  DOPC      O31             8.5088899103      -14.7115290028       12.9527810948  MEMB      3               0.0000000000
       816        31  DOPC      C31             9.1959760058      -13.7221481358       12.3075151772  MEMB      3               0.0000000000
       817        31  DOPC      O32            10.0921603671      -13.0333689453       12.7676886618  MEMB      3               0.0000000000
       818        31  DOPC      C32             8.7979072203      -13.8266549670       10.8721541488  MEMB      3               0.0000000000
       819        31  DOPC      H2X             9.6625291716      -14.1931740832       10.2785098040  MEMB      3               0.0000000000
       820        31  DOPC      H2Y             8.0826229330      -14.6536243430       10.6751487690  MEMB      3               0.0000000000
       821        31  DOPC      C23             3.1054099053      -15.3911390307       12.2745248738  MEMB      3               0.0000000000
       822        31  DOPC      H3R             2.4538190211      -16.2764976175       12.1136213712  MEMB      3               0.0000000000
       823        31  DOPC      H3S             3.8625532595      -15.2010332416       11.4840092501  MEMB      3               0.0000000000
       824        31  DOPC      C24             2.0989037382      -14.1751690488       12.2627060238  MEMB      3               0.0000000000
       825        31  DOPC      H4R             2.6067506069      -13.2039191792       12.0808106429  MEMB      3               0.0000000000
       826        31  DOPC      H4S             1.4496638028      -14.2444205338       13.1616016996  MEMB      3               0.0000000000
       827        31  DOPC      C25             1.1409489228      -14.2347945578       10.9753812506  MEMB      3               0.0000000000
       828        31  DOPC      H5R             0.4989289737      -13.3292864495       10.9286228288  MEMB      3               0.0000000000
       829        31  DOPC      H5S             0.4633844510      -15.0992014434       11.1427970394  MEMB      3               0.0000000000
       830        31  DOPC      C26             1.7961033363      -14.5088066574        9.6566725473  MEMB      3               0.0000000000
       831        31  DOPC      H6R             2.4971065411      -15.3666129439        9.7408384333  MEMB      3               0.0000000000
       832        31  DOPC      H6S             2.5450765521      -13.7298273258        9.3986967787  MEMB      3               0.0000000000
       833        31  DOPC      C27             0.8782551882      -14.8780373221        8.4161383643  MEMB      3               0.0000000000
       834        31  DOPC      H7R             0.2106868412      -14.0033245510        8.2626761443  MEMB      3               0.0000000000
       835        31  DOPC      H7S             0.1258226671      -15.6314787533        8.7331438688  MEMB      3               0.0000000000
       836        31  DOPC      C28             1.7584526596      -15.3509122312        7.3181880642  MEMB      3               0.0000000000
       837        31  DOPC      H8R             2.2507822896      -16.3248105667        7.5266451675  MEMB      3               0.0000000000
       838        31  DOPC      H8S             2.5877105072      -14.6600136618        7.0549172619  MEMB      3               0.0000000000
       839        31  DOPC      C29             0.8831961192      -15.4643219154        6.1423193259  MEMB      3               0.0000000000
       840        31  DOPC      H9R             0.0549850916      -14.7723498633        6.3550190574  MEMB      3               0.0000000000
       841        31  DOPC      C210            1.0215749003      -16.3863974259        5.1074864159  MEMB      3               0.0000000000
       842        31  DOPC      H10R            0.2905423763      -16.3807250123        4.2855620529  MEMB      3               0.0000000000
       843        31  DOPC      C211            2.1381973141      -17.4099956201        4.9404906746  MEMB      3               0.0000000000
       844        31  DOPC      H11R            1.7435474669      -18.4475776743        4.8958123246  MEMB      3               0.0000000000
       845        31  DOPC      H11S            2.8056957640      -17.5465541123        5.8180550729  MEMB      3               0.0000000000
       846        31  DOPC      C212            3.0949572576      -17.0940436037        3.7478267530  MEMB      3               0.0000000000
       847        31  DOPC      H12R            2.5213349566      -17.0745844142        2.7965652009  MEMB      3               0.0000000000
       848        31  DOPC      H12S            3.7389281108      -17.9915241126        3.6288675407  MEMB      3               0.0000000000
       849        31  DOPC      C213            3.8866635524      -15.7430837254        3.8195151826  MEMB      3               0.0000000000
       850        31  DOPC      H13R            4.2270584814      -15.5833416034        4.8649495934  MEMB      3               0.0000000000
       851        31  DOPC      H13S            3.3079940674      -14.8309578843        3.5597277116  MEMB      3               0.0000000000
       852        31  DOPC      C214            5.0279492930      -15.7612224343        2.6928505745  MEMB      3               0.0000000000
       853        31  DOPC      H14R            4.5382264438      -15.6606816186        1.7006907032  MEMB      3               0.0000000000
       854        31  DOPC      H14S            5.5304527699      -16.7510120443        2.7389797160  MEMB      3               0.0000000000
       855        31  DOPC      C215            6.1600475253      -14.6957608728        2.9591712289  MEMB      3               0.0000000000
       856        31  DOPC      H15R            6.7408927973      -15.1135614387        3.8091015140  MEMB      3               0.0000000000
       857        31  DOPC      H15S            5.5938341515      -13.8191411490        3.3403018639  MEMB      3               0.0000000000
       858        31  DOPC      C216            6.9403839802      -14.3156504895        1.7013257069  MEMB      3               0.0000000000
       859        31  DOPC      H16R            6.1970391521      -14.3909313779        0.8790774045  MEMB      3               0.0000000000
       860        31  DOPC      H16S            7.6886620691      -15.1191429721        1.5316178906  MEMB      3               0.0000000000
       861        31  DOPC      C217            7.5539243231      -12.8750629765        1.8395002653  MEMB      3               0.0000000000
       862        31  DOPC      H17R            8.4168273807      -12.7697195531        1.1476758715  MEMB      3               0.0000000000
       863        31  DOPC      H17S            8.0668833081      -12.8482447151        2.8246269703  MEMB      3               0.0000000000
       864        31  DOPC      C218            6.5167678226      -11.8429362522        1.5597431744  MEMB      3               0.0000000000
       865        31  DOPC      H18R            6.1556134021      -11.9591885798        0.5155326522  MEMB      3               0.0000000000
       866        31  DOPC      H18S            6.9138610620      -10.8275501420        1.7733520134  MEMB      3               0.0000000000
       867        31  DOPC      H18T            5.6178424930      -12.0334488765        2.1842108153  MEMB      3               0.0000000000
       868        31  DOPC      C33             8.4450911748      -12.5102378807       10.2096807718  MEMB      3               0.0000000000
       869        31  DOPC      H3X             8.6408527047      -12.6942935052        9.1316634977  MEMB      3               0.0000000000
       870        31  DOPC      H3Y             9.1088462054      -11.6860308793       10.5479606205  MEMB      3               0.0000000000
       871        31  DOPC      C34             7.0319608412      -11.9778994541       10.4583582375  MEMB      3               0.0000000000
       872        31  DOPC      H4X             6.9725309759      -11.0385533529        9.8680890501  MEMB      3               0.0000000000
       873        31  DOPC      H4Y             7.0050755318      -11.6909199815       11.5313174531  MEMB      3               0.0000000000
       874        31  DOPC      C35             5.8933254464      -12.9804925227       10.0671570302  MEMB      3               0.0000000000
       875        31  DOPC      H5X             4.9228697206      -12.6722663318       10.5116039359  MEMB      3               0.0000000000
       876        31  DOPC      H5Y             6.1967657052      -13.9734667467       10.4624385175  MEMB      3               0.0000000000
       877        31  DOPC      C36             5.5804706740      -13.0954248228        8.6162308124  MEMB      3               0.0000000000
       878        31  DOPC      H6X             6.3706704550      -13.7519405325        8.1932734810  MEMB      3               0.0000000000
       879        31  DOPC      H6Y             4.6265110352      -13.6590136171        8.5346863328  MEMB      3               0.0000000000
       880        31  DOPC      C37             5.3992182858      -11.7736914430        7.8969913137  MEMB      3               0.0000000000
       881        31  DOPC      H7X             4.6256628019      -11.2253182706        8.4759732540  MEMB      3               0.0000000000
       882        31  DOPC      H7Y             6.3100420861      -11.1456296848        7.7957023774  MEMB      3               0.0000000000
       883        31  DOPC      C38             4.6932032508      -12.0478305247        6.5519733743  MEMB      3               0.0000000000
       884        31  DOPC      H8X             3.7292238462      -12.4911536565        6.8814109059  MEMB      3               0.0000000000
       885        31  DOPC      H8Y             5.3010834947      -12.7849340570        5.9849803924  MEMB      3               0.0000000000
       886        31  DOPC      C39             4.4312657494      -10.7538051825        5.7911443140  MEMB      3               0.0000000000
       887        31  DOPC      H9X             4.9515402296       -9.9257135728        6.2947098167  MEMB      3               0.0000000000
       888        31  DOPC      C310            3.6525953632      -10.5653225070        4.7465323678  MEMB      3               0.0000000000
       889        31  DOPC      H10X            3.4364102919       -9.5254273265        4.4603812326  MEMB      3               0.0000000000
       890        31  DOPC      C311            2.8239226478      -11.6918547996        4.1145652160  MEMB      3               0.0000000000
       891        31  DOPC      H11X            1.9346685591      -11.7926812171        4.7728826390  MEMB      3               0.0000000000
       892        31  DOPC      H11Y            3.3483870033      -12.6697690185        4.1688055690  MEMB      3               0.0000000000
       893        31  DOPC      C312            2.3605114795      -11.4308118483        2.7132636753  MEMB      3               0.0000000000
       894        31  DOPC      H12X            3.2265035138      -11.2951329921        2.0306446853  MEMB      3               0.0000000000
       895        31  DOPC      H12Y            1.7996567102      -10.4756729008        2.7997097189  MEMB      3               0.0000000000
       896        31  DOPC      C313            1.3766896221      -12.5806347438        2.2295413777  MEMB      3               0.0000000000
       897        31  DOPC      H13X            2.0036332801      -13.4841232982        2.0715201032  MEMB      3               0.0000000000
       898        31  DOPC      H13Y            0.6318560599      -12.9715629626        2.9552955478  MEMB      3               0.0000000000
       899        31  DOPC      C314            0.6038303815      -12.1978282397        1.0019258383  MEMB      3               0.0000000000
       900        31  DOPC      H14X           -0.4707051401      -12.4656481272        1.0911859588  MEMB      3               0.0000000000
       901        31  DOPC      H14Y            0.5231066735      -11.0897658744        1.0003537745  MEMB      3               0.0000000000
       902        31  DOPC      C315            1.1061776503      -12.7136772582       -0.3597511326  MEMB      3               0.0000000000
       903        31  DOPC      H15X            0.3514846711      -12.5168974569       -1.1509763149  MEMB      3               0.0000000000
       904        31  DOPC      H15Y            1.2230142469      -13.8146882303       -0.2678542508  MEMB      3               0.0000000000
       905        31  DOPC      C316            2.4683629486      -12.1937404089       -0.7262017589  MEMB      3               0.0000000000
       906        31  DOPC      H16X            3.2149416567      -12.2524847573        0.0944634298  MEMB      3               0.0000000000
       907        31  DOPC      H16Y            2.9629794486      -12.6967485189       -1.5844883915  MEMB      3               0.0000000000
       908        31  DOPC      C317            2.5638048845      -10.7761350599       -1.2253620882  MEMB      3               0.0000000000
       909        31  DOPC      H17X            1.8837804156      -10.7298089093       -2.1027099356  MEMB      3               0.0000000000
       910        31  DOPC      H17Y            2.1027924488      -10.0329694825       -0.5401658963  MEMB      3               0.0000000000
       911        31  DOPC      C318            3.8741796293      -10.3101270047       -1.7740601482  MEMB      3               0.0000000000
       912        31  DOPC      H18X            3.7173107451       -9.3517390057       -2.3136942150  MEMB      3               0.0000000000
       913        31  DOPC      H18Y            4.7079044164      -10.2235307722       -1.0448653096  MEMB      3               0.0000000000
       914        31  DOPC      H18Z            4.2613741129      -11.0387730540       -2.5180185945  MEMB      3               0.0000000000
       915        32  DOPC      N              11.9178205232       -3.7950628847       19.8004686340  MEMB      4               0.0000000000
       916        32  DOPC      C12            11.0112596374       -4.8563559769       20.4368896899  MEMB      4               0.0000000000
       917        32  DOPC      H12A           11.1735852910       -4.7235490084       21.4963294672  MEMB      4               0.0000000000
       918        32  DOPC      H12B           11.4979473951       -5.7756065080       20.1461776478  MEMB      4               0.0000000000
       919        32  DOPC      C13            11.2561337245       -2.4878223939       20.0588459400  MEMB      4               0.0000000000
       920        32  DOPC      H13A           11.3524325003       -2.3576537609       21.1266393888  MEMB      4               0.0000000000
       921        32  DOPC      H13B           11.8384856952       -1.7180683868       19.5743411703  MEMB      4               0.0000000000
       922        32  DOPC      H13C           10.2425095495       -2.5684296043       19.6948836543  MEMB      4               0.0000000000
       923        32  DOPC      C14            12.0248469517       -3.9489280758       18.2822168617  MEMB      4               0.0000000000
       924        32  DOPC      H14A           12.3788636558       -3.0179243090       17.8647193810  MEMB      4               0.0000000000
       925        32  DOPC      H14B           12.6411481219       -4.8100033495       18.0697971349  MEMB      4               0.0000000000
       926        32  DOPC      H14C           11.0071641313       -4.0890866446       17.9489342445  MEMB      4               0.0000000000
       927        32  DOPC      C15            13.3152645481       -3.8359975830       20.4536459100  MEMB      4               0.0000000000
       928        32  DOPC      H15A           13.8269061805       -4.7721004265       20.2853189459  MEMB      4               0.0000000000
       929        32  DOPC      H15B           13.1584584897       -3.5896046401       21.4934067704  MEMB      4               0.0000000000
       930        32  DOPC      H15C           13.8550479856       -3.0041043842       20.0258756621  MEMB      4               0.0000000000
       931        32  DOPC      C11             9.5442154130       -4.8446467100       20.1016369292  MEMB      4               0.0000000000
       932        32  DOPC      H11A            9.1050162707       -5.6433370452       20.7368682743  MEMB      4               0.0000000000
       933        32  DOPC      H11B            9.0454549727       -3.8564297496       20.1964329355  MEMB      4               0.0000000000
       934        32  DOPC      P               8.1448869049       -5.0778723898       17.9298732193  MEMB      4               0.0000000000
       935        32  DOPC      O13             7.1432846043       -5.7981883877       18.7764369709  MEMB      4               0.0000000000
       936        32  DOPC      O14             8.4788363027       -5.5237615959       16.4920784208  MEMB      4               0.0000000000
       937        32  DOPC      O12             9.4952967629       -5.2164439132       18.7281564040  MEMB      4               0.0000000000
       938        32  DOPC      O11             7.8287656272       -3.4779085547       17.9397510185  MEMB      4               0.0000000000
       939        32  DOPC      C1              8.7168238676       -2.6165320937       17.2489133366  MEMB      4               0.0000000000
       940        32  DOPC      HA              9.5841092409       -3.1216501305       16.7724757657  MEMB      4               0.0000000000
       941        32  DOPC      HB              8.9991361917       -1.8796897080       18.0310157402  MEMB      4               0.0000000000
       942        32  DOPC      C2              7.9696757633       -1.8150604412       16.0940688805  MEMB      4               0.0000000000
       943        32  DOPC      HS              7.5410422805       -0.8968488345       16.5495705372  MEMB      4               0.0000000000
       944        32  DOPC      O21             6.9643096423       -2.7147293705       15.4847744658  MEMB      4               0.0000000000
       945        32  DOPC      C21             6.0815854054       -2.1316966969       14.6308453458  MEMB      4               0.0000000000
       946        32  DOPC      O22             5.9875759171       -0.9709143112       14.3978376776  MEMB      4               0.0000000000
       947        32  DOPC      C22             5.3685429873       -3.2947824465       13.8584990982  MEMB      4               0.0000000000
       948        32  DOPC      H2R             4.4830732478       -2.8370692674       13.3678230196  MEMB      4               0.0000000000
       949        32  DOPC      H2S             4.9876871669       -4.0561623396       14.5723411391  MEMB      4               0.0000000000
       950        32  DOPC      C3              9.0168465131       -1.3204694612       15.0823834657  MEMB      4               0.0000000000
       951        32  DOPC      HX              9.8211487026       -0.7315851479       15.5729285517  MEMB      4               0.0000000000
       952        32  DOPC      HY              8.4006789632       -0.6953098182       14.4013298818  MEMB      4               0.0000000000
       953        32  DOPC      O31             9.7081605508       -2.4086629466       14.4677207331  MEMB      4               0.0000000000
       954        32  DOPC      C31            10.1874712460       -2.0383108228       13.3101148093  MEMB      4               0.0000000000
       955        32  DOPC      O32            10.1736566817       -0.8633086706       12.8891195713  MEMB      4               0.0000000000
       956        32  DOPC      C32            10.9369609558       -3.1834226126       12.6156290879  MEMB      4               0.0000000000
       957        32  DOPC      H2X            10.5426102131       -3.3993226321       11.5996584958  MEMB      4               0.0000000000
       958        32  DOPC      H2Y            11.9623761593       -2.7885936956       12.4514491812  MEMB      4               0.0000000000
       959        32  DOPC      C23             6.4418747997       -3.9116948934       12.9246306390  MEMB      4               0.0000000000
       960        32  DOPC      H3R             6.9407232823       -4.7483486411       13.4589356634  MEMB      4               0.0000000000
       961        32  DOPC      H3S             7.2681577239       -3.2442282128       12.5989529123  MEMB      4               0.0000000000
       962        32  DOPC      C24             5.7163704749       -4.4397434241       11.6013532322  MEMB      4               0.0000000000
       963        32  DOPC      H4R             4.8109383754       -4.9041650566       12.0472531364  MEMB      4               0.0000000000
       964        32  DOPC      H4S             6.4246121601       -5.1842707353       11.1789862025  MEMB      4               0.0000000000
       965        32  DOPC      C25             5.3608264754       -3.4977755059       10.4703320877  MEMB      4               0.0000000000
       966        32  DOPC      H5R             4.6523811226       -2.7228613094       10.8335596107  MEMB      4               0.0000000000
       967        32  DOPC      H5S             4.7081954268       -3.9379838402        9.6863618842  MEMB      4               0.0000000000
       968        32  DOPC      C26             6.5188127485       -2.6178271064        9.8636947034  MEMB      4               0.0000000000
       969        32  DOPC      H6R             7.1166769785       -2.1434782107       10.6710814185  MEMB      4               0.0000000000
       970        32  DOPC      H6S             6.0691044267       -1.8097918143        9.2479334598  MEMB      4               0.0000000000
       971        32  DOPC      C27             7.6407008330       -3.4522129769        9.1758334529  MEMB      4               0.0000000000
       972        32  DOPC      H7R             7.2422557014       -3.9798771046        8.2830102865  MEMB      4               0.0000000000
       973        32  DOPC      H7S             8.0836587054       -4.1624634079        9.9063495290  MEMB      4               0.0000000000
       974        32  DOPC      C28             8.7378940330       -2.6035055686        8.6087257571  MEMB      4               0.0000000000
       975        32  DOPC      H8R             8.8432294761       -1.6880083649        9.2292826614  MEMB      4               0.0000000000
       976        32  DOPC      H8S             8.4368328774       -2.2872339428        7.5871315158  MEMB      4               0.0000000000
       977        32  DOPC      C29            10.0536364223       -3.2863053783        8.6558502798  MEMB      4               0.0000000000
       978        32  DOPC      H9R            10.5168746069       -3.2944493496        9.6535200358  MEMB      4               0.0000000000
       979        32  DOPC      C210           10.7157017008       -3.9102167864        7.6859790999  MEMB      4               0.0000000000
       980        32  DOPC      H10R           11.6447000291       -4.4309255007        7.9613426490  MEMB      4               0.0000000000
       981        32  DOPC      C211           10.3262477612       -4.0580168361        6.2447000533  MEMB      4               0.0000000000
       982        32  DOPC      H11R            9.2241154527       -3.9268012441        6.1956292286  MEMB      4               0.0000000000
       983        32  DOPC      H11S           10.4999463056       -5.1307998821        6.0138611936  MEMB      4               0.0000000000
       984        32  DOPC      C212           10.9905100222       -3.0808663179        5.2836989018  MEMB      4               0.0000000000
       985        32  DOPC      H12R           10.6583834182       -3.5396846098        4.3279281543  MEMB      4               0.0000000000
       986        32  DOPC      H12S           12.0925034220       -3.2120809627        5.3357971238  MEMB      4               0.0000000000
       987        32  DOPC      C213           10.6394163889       -1.5801523089        5.6281894722  MEMB      4               0.0000000000
       988        32  DOPC      H13R           10.7288659226       -1.3280700813        6.7065098989  MEMB      4               0.0000000000
       989        32  DOPC      H13S            9.5630032571       -1.4059160896        5.4153579180  MEMB      4               0.0000000000
       990        32  DOPC      C214           11.5245176609       -0.6457545073        4.7841265014  MEMB      4               0.0000000000
       991        32  DOPC      H14R           12.4894689268       -1.1531531001        4.9979865052  MEMB      4               0.0000000000
       992        32  DOPC      H14S           11.4167346469        0.4209644712        5.0753573021  MEMB      4               0.0000000000
       993        32  DOPC      C215           11.2006747265       -0.7277289001        3.3135087890  MEMB      4               0.0000000000
       994        32  DOPC      H15R           11.2030745661       -1.7329612804        2.8404095164  MEMB      4               0.0000000000
       995        32  DOPC      H15S           11.9825416610       -0.0504185128        2.9082250722  MEMB      4               0.0000000000
       996        32  DOPC      C216            9.8848813688       -0.0216476184        3.0035963025  MEMB      4               0.0000000000
       997        32  DOPC      H16R            9.7519500991        0.8899687280        3.6245683888  MEMB      4               0.0000000000
       998        32  DOPC      H16S            9.0295310289       -0.6517334453        3.3286944988  MEMB      4               0.0000000000
       999        32  DOPC      C217            9.7579345108        0.5205667335        1.5500226461  MEMB      4               0.0000000000
      1000        32  DOPC      H17R            9.9717310417       -0.2792188306        0.8091072352  MEMB      4               0.0000000000
      1001        32  DOPC      H17S           10.6284598159        1.1697508913        1.3153595351  MEMB      4               0.0000000000
      1002        32  DOPC      C218            8.4089526775        1.0828634961        1.1915633864  MEMB      4               0.0000000000
      1003        32  DOPC      H18R            7.6297244937        0.3631764919        1.5219809821  MEMB      4               0.0000000000
      1004        32  DOPC      H18S            8.2793608822        1.1196668020        0.0887610143  MEMB      4               0.0000000000
      1005        32  DOPC      H18T            8.3412377152        2.1315819974        1.5520150737  MEMB      4               0.0000000000
      1006        32  DOPC      C33            11.1946988227       -4.4153364648       13.5217801035  MEMB      4               0.0000000000
      1007        32  DOPC      H3X            11.4194704109       -4.0939324601       14.5612502712  MEMB      4               0.0000000000
      1008        32  DOPC      H3Y            12.1680763022       -4.8809586507       13.2571044893  MEMB      4               0.0000000000
      1009        32  DOPC      C34            10.0505981133       -5.5315820962       13.5934598720  MEMB      4               0.0000000000
      1010        32  DOPC      H4X             9.0963430707       -5.0274082252       13.3297800782  MEMB      4               0.0000000000
      1011        32  DOPC      H4Y             9.9646510865       -5.8762816151       14.6461310684  MEMB      4               0.0000000000
      1012        32  DOPC      C35            10.1965897459       -6.7659977811       12.6149971870  MEMB      4               0.0000000000
      1013        32  DOPC      H5X             9.6218171201       -7.5998214168       13.0718294748  MEMB      4               0.0000000000
      1014        32  DOPC      H5Y            11.2691362533       -7.0538497875       12.6482583695  MEMB      4               0.0000000000
      1015        32  DOPC      C36             9.8043446160       -6.4422235924       11.1723895506  MEMB      4               0.0000000000
      1016        32  DOPC      H6X             8.7260410839       -6.2185727743       11.0255469762  MEMB      4               0.0000000000
      1017        32  DOPC      H6Y            10.3706308759       -5.5491397013       10.8317400705  MEMB      4               0.0000000000
      1018        32  DOPC      C37            10.0036416467       -7.7133820178       10.2420590571  MEMB      4               0.0000000000
      1019        32  DOPC      H7X            10.9067879581       -8.2089483246       10.6580662897  MEMB      4               0.0000000000
      1020        32  DOPC      H7Y             9.1766927029       -8.4182722961       10.4735894641  MEMB      4               0.0000000000
      1021        32  DOPC      C38            10.0111506555       -7.3877800642        8.7427515614  MEMB      4               0.0000000000
      1022        32  DOPC      H8X            10.4102200544       -8.3227862609        8.2946127578  MEMB      4               0.0000000000
      1023        32  DOPC      H8Y            10.7270576538       -6.5509445887        8.5961076349  MEMB      4               0.0000000000
      1024        32  DOPC      C39             8.6900994188       -7.2634724746        8.1006094860  MEMB      4               0.0000000000
      1025        32  DOPC      H9X             7.9789447819       -6.5845818916        8.5939318650  MEMB      4               0.0000000000
      1026        32  DOPC      C310            8.1114742739       -7.9401849149        7.1112085315  MEMB      4               0.0000000000
      1027        32  DOPC      H10X            7.1139912824       -7.6605440618        6.7413049267  MEMB      4               0.0000000000
      1028        32  DOPC      C311            8.7640676759       -9.0812069195        6.3836671364  MEMB      4               0.0000000000
      1029        32  DOPC      H11X            8.1149512138       -9.6496790676        5.6838048280  MEMB      4               0.0000000000
      1030        32  DOPC      H11Y            9.0228294513       -9.7988772798        7.1913259792  MEMB      4               0.0000000000
      1031        32  DOPC      C312            9.9416081733       -8.7656883782        5.4187804347  MEMB      4               0.0000000000
      1032        32  DOPC      H12X           10.3389016535       -9.6982706768        4.9640623855  MEMB      4               0.0000000000
      1033        32  DOPC      H12Y           10.8008203384       -8.3367506336        5.9774288629  MEMB      4               0.0000000000
      1034        32  DOPC      C313            9.5570549135       -7.7769780952        4.3437931916  MEMB      4               0.0000000000
      1035        32  DOPC      H13X            8.7634260871       -8.3665187438        3.8369248541  MEMB      4               0.0000000000
      1036        32  DOPC      H13Y            9.0865297627       -6.8154078524        4.6409625444  MEMB      4               0.0000000000
      1037        32  DOPC      C314           10.7527991337       -7.3478853187        3.4546412330  MEMB      4               0.0000000000
      1038        32  DOPC      H14X           11.4714293950       -7.0731427702        4.2561446362  MEMB      4               0.0000000000
      1039        32  DOPC      H14Y           11.2690298695       -8.1726918632        2.9184312828  MEMB      4               0.0000000000
      1040        32  DOPC      C315           10.5722346418       -6.1961303239        2.4610858722  MEMB      4               0.0000000000
      1041        32  DOPC      H15X           10.0292508193       -5.3679360544        2.9646576527  MEMB      4               0.0000000000
      1042        32  DOPC      H15Y            9.8743214349       -6.5670657590        1.6802896998  MEMB      4               0.0000000000
      1043        32  DOPC      C316           11.9551688486       -5.6468690589        2.0028638174  MEMB      4               0.0000000000
      1044        32  DOPC      H16X           12.3328292341       -5.0911737247        2.8876772041  MEMB      4               0.0000000000
      1045        32  DOPC      H16Y           12.7040083134       -6.4547948071        1.8585859325  MEMB      4               0.0000000000
      1046        32  DOPC      C317           11.9214930710       -4.8552835209        0.7315875330  MEMB      4               0.0000000000
      1047        32  DOPC      H17X           11.5140892647       -5.5185683783       -0.0611271791  MEMB      4               0.0000000000
      1048        32  DOPC      H17Y           11.3006192998       -3.9371318928        0.8079704562  MEMB      4               0.0000000000
      1049        32  DOPC      C318           13.2917304951       -4.4390313052        0.2121271207  MEMB      4               0.0000000000
      1050        32  DOPC      H18X           13.7462607870       -5.3733938396       -0.1811784361  MEMB      4               0.0000000000
      1051        32  DOPC      H18Y           13.3320962589       -3.7442750923       -0.6539001927  MEMB      4               0.0000000000
      1052        32  DOPC      H18Z           13.8741317075       -3.9980637182        1.0491925802  MEMB      4               0.0000000000
      1053        33  DOPC      N              10.1079098293        5.2118325548       18.0514379326  MEMB      5               0.0000000000
      1054        33  DOPC      C12            10.1225911394        4.0223645128       18.9414600893  MEMB      5               0.0000000000
      1055        33  DOPC      H12A            9.3146057709        3.3297626734       18.7574429608  MEMB      5               0.0000000000
      1056        33  DOPC      H12B           10.0131722540        4.5012874311       19.9032606710  MEMB      5               0.0000000000
      1057        33  DOPC      C13            10.3703124681        4.8160716055       16.5670304212  MEMB      5               0.0000000000
      1058        33  DOPC      H13A            9.6730773475        4.1053802767       16.1484839287  MEMB      5               0.0000000000
      1059        33  DOPC      H13B           10.2790697705        5.7266312742       15.9934838694  MEMB      5               0.0000000000
      1060        33  DOPC      H13C           11.3901493520        4.4854128519       16.4366566557  MEMB      5               0.0000000000
      1061        33  DOPC      C14            11.2076773862        6.2025909897       18.5060321507  MEMB      5               0.0000000000
      1062        33  DOPC      H14A           12.1811558043        5.7444900283       18.4117805194  MEMB      5               0.0000000000
      1063        33  DOPC      H14B           11.2033288530        7.0631872523       17.8535332380  MEMB      5               0.0000000000
      1064        33  DOPC      H14C           11.0485884032        6.4877385845       19.5354890858  MEMB      5               0.0000000000
      1065        33  DOPC      C15             8.8212968066        6.0050717014       17.9890930163  MEMB      5               0.0000000000
      1066        33  DOPC      H15A            8.6968195800        6.4489958790       18.9657386809  MEMB      5               0.0000000000
      1067        33  DOPC      H15B            8.0676200220        5.2779932249       17.7250324390  MEMB      5               0.0000000000
      1068        33  DOPC      H15C            8.9011040909        6.7131423463       17.1775101316  MEMB      5               0.0000000000
      1069        33  DOPC      C11            11.4235120564        3.2070257359       19.0746960476  MEMB      5               0.0000000000
      1070        33  DOPC      H11A           11.1870457885        2.2389851948       19.5659213523  MEMB      5               0.0000000000
      1071        33  DOPC      H11B           11.8658109865        2.9859792033       18.0797934645  MEMB      5               0.0000000000
      1072        33  DOPC      P              13.7600511167        3.1260636504       20.0222237798  MEMB      5               0.0000000000
      1073        33  DOPC      O13            13.4735773519        1.6581465992       20.1438697190  MEMB      5               0.0000000000
      1074        33  DOPC      O14            14.3921989682        3.7652413427       21.2036966907  MEMB      5               0.0000000000
      1075        33  DOPC      O12            12.4634185796        3.9576628996       19.7530122401  MEMB      5               0.0000000000
      1076        33  DOPC      O11            14.7069961999        3.3173616059       18.7474479094  MEMB      5               0.0000000000
      1077        33  DOPC      C1             14.7588887203        4.5980441346       18.0850247878  MEMB      5               0.0000000000
      1078        33  DOPC      HA             15.8110063235        4.9464098526       18.1625563159  MEMB      5               0.0000000000
      1079        33  DOPC      HB             14.1700459379        5.3631105052       18.6348052957  MEMB      5               0.0000000000
      1080        33  DOPC      C2             14.2102187147        4.5169339468       16.5854531628  MEMB      5               0.0000000000
      1081        33  DOPC      HS             13.1988687148        4.0837252298       16.7397976021  MEMB      5               0.0000000000
      1082        33  DOPC      O21            14.9087372008        3.6309114508       15.7315550254  MEMB      5               0.0000000000
      1083        33  DOPC      C21            14.8217852245        2.2961808759       15.9073637049  MEMB      5               0.0000000000
      1084        33  DOPC      O22            13.9752121562        1.7826319218       16.6270440636  MEMB      5               0.0000000000
      1085        33  DOPC      C22            15.9392956493        1.5378515474       15.1114019067  MEMB      5               0.0000000000
      1086        33  DOPC      H2R            15.5584394492        0.4949315811       15.0715637838  MEMB      5               0.0000000000
      1087        33  DOPC      H2S            16.6942572086        1.6099675363       15.9232846933  MEMB      5               0.0000000000
      1088        33  DOPC      C3             14.2108904960        5.9410580028       15.9112298291  MEMB      5               0.0000000000
      1089        33  DOPC      HX             15.2897043138        6.1237080603       15.7185629700  MEMB      5               0.0000000000
      1090        33  DOPC      HY             13.8443219027        6.7372558945       16.5938848042  MEMB      5               0.0000000000
      1091        33  DOPC      O31            13.5037366494        5.9076492482       14.6565561262  MEMB      5               0.0000000000
      1092        33  DOPC      C31            13.7044224586        6.9977054193       13.8709963581  MEMB      5               0.0000000000
      1093        33  DOPC      O32            14.5674767065        7.8132438446       14.0887265008  MEMB      5               0.0000000000
      1094        33  DOPC      C32            12.8009239655        6.9552835061       12.6368840629  MEMB      5               0.0000000000
      1095        33  DOPC      H2X            12.5081953845        5.8955767585       12.4767190598  MEMB      5               0.0000000000
      1096        33  DOPC      H2Y            11.9756891590        7.6980256194       12.6774186376  MEMB      5               0.0000000000
      1097        33  DOPC      C23            16.3639882407        2.1463207515       13.7109270683  MEMB      5               0.0000000000
      1098        33  DOPC      H3R            17.0696032604        1.4860289619       13.1628001621  MEMB      5               0.0000000000
      1099        33  DOPC      H3S            16.8941183779        3.0969622651       13.9335563895  MEMB      5               0.0000000000
      1100        33  DOPC      C24            15.0833040685        2.3353026361       12.8432056848  MEMB      5               0.0000000000
      1101        33  DOPC      H4R            14.1930075871        2.6950513486       13.4020208374  MEMB      5               0.0000000000
      1102        33  DOPC      H4S            14.8933174080        1.3268069018       12.4175741375  MEMB      5               0.0000000000
      1103        33  DOPC      C25            15.3090502677        3.3816188908       11.6841493027  MEMB      5               0.0000000000
      1104        33  DOPC      H5R            16.1850339461        4.0231578955       11.9195251158  MEMB      5               0.0000000000
      1105        33  DOPC      H5S            14.4247615832        4.0297480644       11.5044738570  MEMB      5               0.0000000000
      1106        33  DOPC      C26            15.7414065029        2.7555266797       10.3365645475  MEMB      5               0.0000000000
      1107        33  DOPC      H6R            16.5357419977        2.0002226577       10.5178590391  MEMB      5               0.0000000000
      1108        33  DOPC      H6S            16.1606150810        3.4615253203        9.5881322996  MEMB      5               0.0000000000
      1109        33  DOPC      C27            14.4996524488        2.0454133145        9.6927919272  MEMB      5               0.0000000000
      1110        33  DOPC      H7R            13.7154454075        1.9878008609       10.4776616642  MEMB      5               0.0000000000
      1111        33  DOPC      H7S            14.8207483097        0.9967020936        9.5155257832  MEMB      5               0.0000000000
      1112        33  DOPC      C28            14.1030459955        2.6413440600        8.3269430483  MEMB      5               0.0000000000
      1113        33  DOPC      H8R            13.9995771637        3.7171902387        8.5841789689  MEMB      5               0.0000000000
      1114        33  DOPC      H8S            13.0842674267        2.2398723570        8.1392421893  MEMB      5               0.0000000000
      1115        33  DOPC      C29            15.1636764521        2.4498824489        7.2954776488  MEMB      5               0.0000000000
      1116        33  DOPC      H9R            15.7575680412        1.5239816280        7.2962304752  MEMB      5               0.0000000000
      1117        33  DOPC      C210           15.4313810772        3.4246809779        6.4181511010  MEMB      5               0.0000000000
      1118        33  DOPC      H10R           16.1564776710        3.1917987033        5.6244255402  MEMB      5               0.0000000000
      1119        33  DOPC      C211           14.7191231356        4.7698529116        6.3838387498  MEMB      5               0.0000000000
      1120        33  DOPC      H11R           15.2906852337        5.4413010855        5.7079726264  MEMB      5               0.0000000000
      1121        33  DOPC      H11S           14.5603227204        5.2243986080        7.3850834484  MEMB      5               0.0000000000
      1122        33  DOPC      C212           13.3397698561        4.7539752884        5.7147235170  MEMB      5               0.0000000000
      1123        33  DOPC      H12R           13.0577716289        5.8056520771        5.4938752287  MEMB      5               0.0000000000
      1124        33  DOPC      H12S           12.5133756476        4.3406402058        6.3316089266  MEMB      5               0.0000000000
      1125        33  DOPC      C213           13.3166034927        4.1148871861        4.2686965895  MEMB      5               0.0000000000
      1126        33  DOPC      H13R           12.2809719522        4.3642717456        3.9531084641  MEMB      5               0.0000000000
      1127        33  DOPC      H13S           13.4521723635        3.0190163843        4.3912090521  MEMB      5               0.0000000000
      1128        33  DOPC      C214           14.4166899763        4.5645365822        3.2006578648  MEMB      5               0.0000000000
      1129        33  DOPC      H14R           15.4150221014        4.1986811592        3.5228436899  MEMB      5               0.0000000000
      1130        33  DOPC      H14S           14.4634765324        5.6705296500        3.1062566851  MEMB      5               0.0000000000
      1131        33  DOPC      C215           14.2598400274        3.8750461608        1.8395459705  MEMB      5               0.0000000000
      1132        33  DOPC      H15R           13.2925375354        4.0407509370        1.3187876573  MEMB      5               0.0000000000
      1133        33  DOPC      H15S           14.4208416456        2.7904953829        2.0188475339  MEMB      5               0.0000000000
      1134        33  DOPC      C216           15.3591819253        4.4222882936        0.9779751848  MEMB      5               0.0000000000
      1135        33  DOPC      H16R           16.3615188104        4.2814718472        1.4360279165  MEMB      5               0.0000000000
      1136        33  DOPC      H16S           15.0884698110        5.4788464323        0.7665023597  MEMB      5               0.0000000000
      1137        33  DOPC      C217           15.3048917408        3.7493480781       -0.4466686741  MEMB      5               0.0000000000
      1138        33  DOPC      H17R           15.6376553708        2.6949683696       -0.3377076692  MEMB      5               0.0000000000
      1139        33  DOPC      H17S           16.0912053156        4.2781300201       -1.0266861608  MEMB      5               0.0000000000
      1140        33  DOPC      C218           13.9706095813        3.8672736399       -1.2152205645  MEMB      5               0.0000000000
      1141        33  DOPC      H18R           13.7965683840        4.9489658400       -1.3995362670  MEMB      5               0.0000000000
      1142        33  DOPC      H18S           13.1628285561        3.4707048104       -0.5636487232  MEMB      5               0.0000000000
      1143        33  DOPC      H18T           14.0217706675        3.2733321604       -2.1527357389  MEMB      5               0.0000000000
      1144        33  DOPC      C33            13.6702147302        7.4250052612       11.4144080494  MEMB      5               0.0000000000
      1145        33  DOPC      H3X            14.4786767289        6.6852538171       11.2314384210  MEMB      5               0.0000000000
      1146        33  DOPC      H3Y            14.1311024705        8.3980739346       11.6883444319  MEMB      5               0.0000000000
      1147        33  DOPC      C34            13.0461538588        7.6110177945       10.0487884149  MEMB      5               0.0000000000
      1148        33  DOPC      H4X            13.8781301279        7.7335289211        9.3227534985  MEMB      5               0.0000000000
      1149        33  DOPC      H4Y            12.2880375041        8.4220358613       10.0060122615  MEMB      5               0.0000000000
      1150        33  DOPC      C35            12.3432590596        6.3560081588        9.5543115616  MEMB      5               0.0000000000
      1151        33  DOPC      H5X            12.7640869728        5.5135263083       10.1437594045  MEMB      5               0.0000000000
      1152        33  DOPC      H5Y            12.5141186735        6.2388450654        8.4627981505  MEMB      5               0.0000000000
      1153        33  DOPC      C36            10.8314428967        6.4248525853        9.9883879105  MEMB      5               0.0000000000
      1154        33  DOPC      H6X            10.7448412030        6.4159311262       11.0959720257  MEMB      5               0.0000000000
      1155        33  DOPC      H6Y            10.5013612440        7.4498385214        9.7149448086  MEMB      5               0.0000000000
      1156        33  DOPC      C37             9.8319910762        5.5056859094        9.3095117617  MEMB      5               0.0000000000
      1157        33  DOPC      H7X             8.7891088047        5.8616809079        9.4508813088  MEMB      5               0.0000000000
      1158        33  DOPC      H7Y            10.0274835209        5.6106489009        8.2208944531  MEMB      5               0.0000000000
      1159        33  DOPC      C38             9.9289112750        4.0475819845        9.7836099043  MEMB      5               0.0000000000
      1160        33  DOPC      H8X            10.1318504740        4.0995770940       10.8746791845  MEMB      5               0.0000000000
      1161        33  DOPC      H8Y            10.8179428747        3.6118472933        9.2795465639  MEMB      5               0.0000000000
      1162        33  DOPC      C39             8.6211357857        3.2893098211        9.7116342960  MEMB      5               0.0000000000
      1163        33  DOPC      H9X             8.0020243360        3.1181598662       10.6046116508  MEMB      5               0.0000000000
      1164        33  DOPC      C310            8.1949875468        2.7455424314        8.5315909293  MEMB      5               0.0000000000
      1165        33  DOPC      H10X            7.2879062077        2.1233039454        8.5363165803  MEMB      5               0.0000000000
      1166        33  DOPC      C311            8.8625661510        2.7073599317        7.1573024140  MEMB      5               0.0000000000
      1167        33  DOPC      H11X            9.6265062490        3.5133388106        7.1239152458  MEMB      5               0.0000000000
      1168        33  DOPC      H11Y            8.2406503200        2.8091154924        6.2423232517  MEMB      5               0.0000000000
      1169        33  DOPC      C312            9.6934102283        1.3581493383        7.0987639024  MEMB      5               0.0000000000
      1170        33  DOPC      H12X            8.9418425447        0.5497784128        6.9722591796  MEMB      5               0.0000000000
      1171        33  DOPC      H12Y           10.1936180767        1.1760057287        8.0739241579  MEMB      5               0.0000000000
      1172        33  DOPC      C313           10.6472954071        1.1746091174        5.9072346666  MEMB      5               0.0000000000
      1173        33  DOPC      H13X           11.4723295357        1.8977518630        6.0824597489  MEMB      5               0.0000000000
      1174        33  DOPC      H13Y           11.1333055296        0.2038417059        6.1432978502  MEMB      5               0.0000000000
      1175        33  DOPC      C314           10.0228545700        1.1803128219        4.5546712524  MEMB      5               0.0000000000
      1176        33  DOPC      H14X            9.0712162380        0.6079057908        4.5871657893  MEMB      5               0.0000000000
      1177        33  DOPC      H14Y            9.8433598896        2.1814336292        4.1076139391  MEMB      5               0.0000000000
      1178        33  DOPC      C315           10.6636444518        0.2741917371        3.4369296975  MEMB      5               0.0000000000
      1179        33  DOPC      H15X           10.1067681319        0.3565947000        2.4791111255  MEMB      5               0.0000000000
      1180        33  DOPC      H15Y           10.5699938941       -0.7986346131        3.7100491222  MEMB      5               0.0000000000
      1181        33  DOPC      C316           12.1851882717        0.4878128242        3.1919535192  MEMB      5               0.0000000000
      1182        33  DOPC      H16X           12.3030048025        1.4397448784        2.6313600733  MEMB      5               0.0000000000
      1183        33  DOPC      H16Y           12.5852922285        0.5193708423        4.2279273741  MEMB      5               0.0000000000
      1184        33  DOPC      C317           12.9877306728       -0.6688570707        2.5294851389  MEMB      5               0.0000000000
      1185        33  DOPC      H17X           14.0277055012       -0.2793833628        2.4965689067  MEMB      5               0.0000000000
      1186        33  DOPC      H17Y           12.9715510835       -1.5838926957        3.1593815624  MEMB      5               0.0000000000
      1187        33  DOPC      C318           12.5735711200       -1.1082025370        1.1456628466  MEMB      5               0.0000000000
      1188        33  DOPC      H18X           12.5716482440       -0.2341845781        0.4597974382  MEMB      5               0.0000000000
      1189        33  DOPC      H18Y           13.3291328150       -1.8426781285        0.7935357264  MEMB      5               0.0000000000
      1190        33  DOPC      H18Z           11.5778009550       -1.5988640240        1.1007842984  MEMB      5               0.0000000000
      1191        34  DOPC      N             -10.0810147278       -3.9136195380       18.9597694155  MEMB      6               0.0000000000
      1192        34  DOPC      C12            -9.4314177730       -5.0899701710       18.3088386362  MEMB      6               0.0000000000
      1193        34  DOPC      H12A           -8.6527412591       -5.4745152886       18.9508573648  MEMB      6               0.0000000000
      1194        34  DOPC      H12B           -8.9609360153       -4.7967980888       17.3819636953  MEMB      6               0.0000000000
      1195        34  DOPC      C13            -8.9833202987       -2.8433882862       19.0949009889  MEMB      6               0.0000000000
      1196        34  DOPC      H13A           -9.3955148452       -1.9681865767       19.5750230405  MEMB      6               0.0000000000
      1197        34  DOPC      H13B           -8.1282880319       -3.2075696130       19.6450754072  MEMB      6               0.0000000000
      1198        34  DOPC      H13C           -8.7915270356       -2.4080585975       18.1253116103  MEMB      6               0.0000000000
      1199        34  DOPC      C14           -10.6663088072       -4.1650196575       20.3923745364  MEMB      6               0.0000000000
      1200        34  DOPC      H14A          -10.9487037602       -3.1869672971       20.7530218044  MEMB      6               0.0000000000
      1201        34  DOPC      H14B          -11.5311621986       -4.8050820851       20.2988406366  MEMB      6               0.0000000000
      1202        34  DOPC      H14C           -9.8156179413       -4.5336506810       20.9463025310  MEMB      6               0.0000000000
      1203        34  DOPC      C15           -11.2025403873       -3.4197824861       18.1280313423  MEMB      6               0.0000000000
      1204        34  DOPC      H15A          -12.0637979953       -4.0070865971       18.4103597383  MEMB      6               0.0000000000
      1205        34  DOPC      H15B          -10.8498569327       -3.7696794526       17.1690806045  MEMB      6               0.0000000000
      1206        34  DOPC      H15C          -11.3473562853       -2.3505485088       18.1745866053  MEMB      6               0.0000000000
      1207        34  DOPC      C11           -10.2656232182       -6.3199285228       17.9543918381  MEMB      6               0.0000000000
      1208        34  DOPC      H11A          -11.2571755846       -5.9705049940       17.5951592653  MEMB      6               0.0000000000
      1209        34  DOPC      H11B           -9.8993725679       -6.7932835665       17.0183810358  MEMB      6               0.0000000000
      1210        34  DOPC      P              -9.1471464129       -8.2945367270       19.2978443274  MEMB      6               0.0000000000
      1211        34  DOPC      O13            -9.5434934236       -9.7024426983       19.0078221261  MEMB      6               0.0000000000
      1212        34  DOPC      O14            -8.4760102402       -8.0582098540       20.6144282532  MEMB      6               0.0000000000
      1213        34  DOPC      O12           -10.3709844837       -7.2147934258       19.0875320650  MEMB      6               0.0000000000
      1214        34  DOPC      O11            -8.1484598972       -7.8111957405       18.1540664713  MEMB      6               0.0000000000
      1215        34  DOPC      C1             -8.0193480372       -8.6177556412       17.0001645040  MEMB      6               0.0000000000
      1216        34  DOPC      HA             -8.9999516342       -8.7272948213       16.4895385515  MEMB      6               0.0000000000
      1217        34  DOPC      HB             -7.5256702551       -9.5660014430       17.3025438334  MEMB      6               0.0000000000
      1218        34  DOPC      C2             -7.0390079707       -7.9554696091       15.9670555554  MEMB      6               0.0000000000
      1219        34  DOPC      HS             -6.0869244399       -7.9168446713       16.5383402874  MEMB      6               0.0000000000
      1220        34  DOPC      O21            -7.5760921171       -6.6768815327       15.6039104486  MEMB      6               0.0000000000
      1221        34  DOPC      C21            -6.7581664617       -5.6126659173       15.4507051234  MEMB      6               0.0000000000
      1222        34  DOPC      O22            -5.5724854698       -5.6383812522       15.6017073807  MEMB      6               0.0000000000
      1223        34  DOPC      C22            -7.6337217464       -4.4560837916       15.0317053799  MEMB      6               0.0000000000
      1224        34  DOPC      H2R            -7.1444261065       -3.4590964729       15.0621510314  MEMB      6               0.0000000000
      1225        34  DOPC      H2S            -8.4667303233       -4.4509389457       15.7668182158  MEMB      6               0.0000000000
      1226        34  DOPC      C3             -6.8984192725       -8.9223865169       14.7949272299  MEMB      6               0.0000000000
      1227        34  DOPC      HX             -6.9294330833      -10.0188476712       14.9713700307  MEMB      6               0.0000000000
      1228        34  DOPC      HY             -5.8738381424       -8.6886127512       14.4345039647  MEMB      6               0.0000000000
      1229        34  DOPC      O31            -7.8951520278       -8.5288794679       13.8346723081  MEMB      6               0.0000000000
      1230        34  DOPC      C31            -7.7674670364       -9.0726017998       12.6100765848  MEMB      6               0.0000000000
      1231        34  DOPC      O32            -7.1942024320      -10.1235567590       12.4392779216  MEMB      6               0.0000000000
      1232        34  DOPC      C32            -8.5738560636       -8.3454893161       11.5950424510  MEMB      6               0.0000000000
      1233        34  DOPC      H2X            -9.5040537788       -7.8982683176       12.0061952283  MEMB      6               0.0000000000
      1234        34  DOPC      H2Y            -7.9415391152       -7.4978946080       11.2543383121  MEMB      6               0.0000000000
      1235        34  DOPC      C23            -8.0421584083       -4.6331878509       13.5110094943  MEMB      6               0.0000000000
      1236        34  DOPC      H3R            -8.3693586806       -5.6948013629       13.4955991623  MEMB      6               0.0000000000
      1237        34  DOPC      H3S            -7.3020423753       -4.4663503797       12.6993974494  MEMB      6               0.0000000000
      1238        34  DOPC      C24            -9.3590802690       -3.7857361758       13.0966220100  MEMB      6               0.0000000000
      1239        34  DOPC      H4R            -9.1574420519       -2.7948738040       13.5568990748  MEMB      6               0.0000000000
      1240        34  DOPC      H4S           -10.2759738718       -4.1479519533       13.6088982567  MEMB      6               0.0000000000
      1241        34  DOPC      C25            -9.6574699256       -3.7386294778       11.5900998690  MEMB      6               0.0000000000
      1242        34  DOPC      H5R            -9.6103609398       -4.7429253776       11.1173512207  MEMB      6               0.0000000000
      1243        34  DOPC      H5S            -8.9911259978       -3.0269240220       11.0573876655  MEMB      6               0.0000000000
      1244        34  DOPC      C26           -11.1347406652       -3.2771034149       11.4973085764  MEMB      6               0.0000000000
      1245        34  DOPC      H6R           -11.2525627043       -2.2947702542       12.0027400487  MEMB      6               0.0000000000
      1246        34  DOPC      H6S           -11.8779797846       -3.8832694957       12.0580929823  MEMB      6               0.0000000000
      1247        34  DOPC      C27           -11.6978235131       -3.1189010370       10.0129203167  MEMB      6               0.0000000000
      1248        34  DOPC      H7R           -10.8594203615       -2.5043087414        9.6209036937  MEMB      6               0.0000000000
      1249        34  DOPC      H7S           -12.6044930011       -2.4813415558        9.9368330181  MEMB      6               0.0000000000
      1250        34  DOPC      C28           -11.8439267882       -4.3623485900        9.1132444257  MEMB      6               0.0000000000
      1251        34  DOPC      H8R           -11.0781004669       -5.1576636521        9.2369567034  MEMB      6               0.0000000000
      1252        34  DOPC      H8S           -11.5887842098       -3.9985536174        8.0949729677  MEMB      6               0.0000000000
      1253        34  DOPC      C29           -13.1779040746       -5.0701484484        9.2725682125  MEMB      6               0.0000000000
      1254        34  DOPC      H9R           -13.3846257025       -5.4039415766       10.3001129305  MEMB      6               0.0000000000
      1255        34  DOPC      C210          -14.0918157129       -5.3596951086        8.2941791922  MEMB      6               0.0000000000
      1256        34  DOPC      H10R          -14.9232554868       -6.0238904523        8.5726623378  MEMB      6               0.0000000000
      1257        34  DOPC      C211          -13.9883914122       -5.1454322459        6.8126627132  MEMB      6               0.0000000000
      1258        34  DOPC      H11R          -13.9277612232       -4.0771424090        6.5136610225  MEMB      6               0.0000000000
      1259        34  DOPC      H11S          -14.9422586480       -5.3951756594        6.3007184552  MEMB      6               0.0000000000
      1260        34  DOPC      C212          -13.0035705872       -5.9479520999        5.9295910106  MEMB      6               0.0000000000
      1261        34  DOPC      H12R          -12.7833332760       -6.9783797011        6.2817771809  MEMB      6               0.0000000000
      1262        34  DOPC      H12S          -12.0638708853       -5.3631333624        6.0258837953  MEMB      6               0.0000000000
      1263        34  DOPC      C213          -13.2838885186       -5.8458367430        4.4402704318  MEMB      6               0.0000000000
      1264        34  DOPC      H13R          -12.5825592273       -5.1839962486        3.8885227726  MEMB      6               0.0000000000
      1265        34  DOPC      H13S          -14.2936577251       -5.3975372808        4.3231613139  MEMB      6               0.0000000000
      1266        34  DOPC      C214          -13.3863444862       -7.2249208177        3.6844968061  MEMB      6               0.0000000000
      1267        34  DOPC      H14R          -14.1961613525       -7.7005145108        4.2780692284  MEMB      6               0.0000000000
      1268        34  DOPC      H14S          -12.4597420416       -7.8040714702        3.8852790734  MEMB      6               0.0000000000
      1269        34  DOPC      C215          -13.5415276611       -7.2423318346        2.1656788049  MEMB      6               0.0000000000
      1270        34  DOPC      H15R          -13.0997258545       -8.2193003455        1.8747067941  MEMB      6               0.0000000000
      1271        34  DOPC      H15S          -13.1362031554       -6.2875003675        1.7677708664  MEMB      6               0.0000000000
      1272        34  DOPC      C216          -15.0177550864       -7.2380613757        1.6155185089  MEMB      6               0.0000000000
      1273        34  DOPC      H16R          -15.4263103018       -6.2898822569        2.0258373987  MEMB      6               0.0000000000
      1274        34  DOPC      H16S          -15.5942574587       -8.1361755260        1.9243177016  MEMB      6               0.0000000000
      1275        34  DOPC      C217          -15.0232724238       -7.1564080798        0.0627408889  MEMB      6               0.0000000000
      1276        34  DOPC      H17R          -16.0034554184       -7.5357532935       -0.2973423423  MEMB      6               0.0000000000
      1277        34  DOPC      H17S          -14.4033494570       -7.9710982424       -0.3688792305  MEMB      6               0.0000000000
      1278        34  DOPC      C218          -14.8147634238       -5.7508106985       -0.5241826093  MEMB      6               0.0000000000
      1279        34  DOPC      H18R          -14.5054736529       -5.9456303091       -1.5733274866  MEMB      6               0.0000000000
      1280        34  DOPC      H18S          -13.9504463064       -5.1186911168       -0.2280377232  MEMB      6               0.0000000000
      1281        34  DOPC      H18T          -15.7568519958       -5.1691026468       -0.6158651861  MEMB      6               0.0000000000
      1282        34  DOPC      C33            -8.8898388923       -9.2491553272       10.3569883878  MEMB      6               0.0000000000
      1283        34  DOPC      H3X            -9.3253643616      -10.1707082905       10.7990046368  MEMB      6               0.0000000000
      1284        34  DOPC      H3Y            -7.8260777758       -9.4306727774       10.0928206582  MEMB      6               0.0000000000
      1285        34  DOPC      C34            -9.7353490960       -8.6628021746        9.2348811527  MEMB      6               0.0000000000
      1286        34  DOPC      H4X           -10.7837998378       -8.5288379843        9.5771179103  MEMB      6               0.0000000000
      1287        34  DOPC      H4Y            -9.7924515656       -9.4946871225        8.5006965961  MEMB      6               0.0000000000
      1288        34  DOPC      C35            -9.3217242719       -7.3022064966        8.5914990753  MEMB      6               0.0000000000
      1289        34  DOPC      H5X            -9.0184295468       -6.6378571718        9.4287405382  MEMB      6               0.0000000000
      1290        34  DOPC      H5Y           -10.1057084975       -6.8615668910        7.9391748019  MEMB      6               0.0000000000
      1291        34  DOPC      C36            -8.1344154093       -7.4884696093        7.5596134628  MEMB      6               0.0000000000
      1292        34  DOPC      H6X            -7.9571271721       -6.4470005276        7.2157645616  MEMB      6               0.0000000000
      1293        34  DOPC      H6Y            -7.1813806029       -7.7747256942        8.0536812869  MEMB      6               0.0000000000
      1294        34  DOPC      C37            -8.3210918077       -8.4584794419        6.3593463210  MEMB      6               0.0000000000
      1295        34  DOPC      H7X            -7.4297950514       -8.3372564320        5.7072603614  MEMB      6               0.0000000000
      1296        34  DOPC      H7Y            -8.5631049100       -9.4777495984        6.7292637884  MEMB      6               0.0000000000
      1297        34  DOPC      C38            -9.6341997131       -8.0581196939        5.5683424748  MEMB      6               0.0000000000
      1298        34  DOPC      H8X            -9.7274601623       -6.9570614887        5.4530417062  MEMB      6               0.0000000000
      1299        34  DOPC      H8Y           -10.5283529753       -8.3401130666        6.1644053077  MEMB      6               0.0000000000
      1300        34  DOPC      C39            -9.8578640964       -8.8867156236        4.3035354416  MEMB      6               0.0000000000
      1301        34  DOPC      H9X           -10.0500709627       -9.9465468268        4.5267263141  MEMB      6               0.0000000000
      1302        34  DOPC      C310           -9.5056082968       -8.6255047114        3.0563960525  MEMB      6               0.0000000000
      1303        34  DOPC      H10X           -9.7263695968       -9.2741899633        2.1958887619  MEMB      6               0.0000000000
      1304        34  DOPC      C311           -8.7625679601       -7.4083571162        2.6555126699  MEMB      6               0.0000000000
      1305        34  DOPC      H11X           -8.4935831212       -6.7330817380        3.4957328105  MEMB      6               0.0000000000
      1306        34  DOPC      H11Y           -9.3140953144       -6.7236976224        1.9762625452  MEMB      6               0.0000000000
      1307        34  DOPC      C312           -7.4845665991       -7.7484142191        1.8989049462  MEMB      6               0.0000000000
      1308        34  DOPC      H12X           -7.6953837803       -8.2590871244        0.9350123286  MEMB      6               0.0000000000
      1309        34  DOPC      H12Y           -6.8559221872       -8.4388173098        2.5009603991  MEMB      6               0.0000000000
      1310        34  DOPC      C313           -6.6330717327       -6.4197088136        1.5424564808  MEMB      6               0.0000000000
      1311        34  DOPC      H13X           -6.5610015469       -5.7152187738        2.3985061079  MEMB      6               0.0000000000
      1312        34  DOPC      H13Y           -5.6601103356       -6.9028966067        1.3096538222  MEMB      6               0.0000000000
      1313        34  DOPC      C314           -7.0673508802       -5.4344070931        0.4138865444  MEMB      6               0.0000000000
      1314        34  DOPC      H14X           -8.0116987265       -5.0119137366        0.8188896679  MEMB      6               0.0000000000
      1315        34  DOPC      H14Y           -6.3404339878       -4.5979636681        0.3346702371  MEMB      6               0.0000000000
      1316        34  DOPC      C315           -7.2658678355       -5.9737308939       -0.9771824327  MEMB      6               0.0000000000
      1317        34  DOPC      H15X           -6.6586565647       -6.9021044985       -1.0383215318  MEMB      6               0.0000000000
      1318        34  DOPC      H15Y           -6.9055124710       -5.2754216983       -1.7625676151  MEMB      6               0.0000000000
      1319        34  DOPC      C316           -8.7804980789       -6.3499647116       -1.3643524535  MEMB      6               0.0000000000
      1320        34  DOPC      H16X           -8.7053229311       -7.0049445159       -2.2585957435  MEMB      6               0.0000000000
      1321        34  DOPC      H16Y           -9.1891485775       -7.0154022983       -0.5740868804  MEMB      6               0.0000000000
      1322        34  DOPC      C317           -9.8170256817       -5.1998845695       -1.5958208218  MEMB      6               0.0000000000
      1323        34  DOPC      H17X          -10.1922902668       -4.7474222319       -0.6530715627  MEMB      6               0.0000000000
      1324        34  DOPC      H17Y           -9.2874599468       -4.3904038497       -2.1422841101  MEMB      6               0.0000000000
      1325        34  DOPC      C318          -11.0624341256       -5.6318215378       -2.3915145771  MEMB      6               0.0000000000
      1326        34  DOPC      H18X          -11.7490609848       -4.7610249441       -2.4591736295  MEMB      6               0.0000000000
      1327        34  DOPC      H18Y          -10.7544597858       -5.9432686329       -3.4125301474  MEMB      6               0.0000000000
      1328        34  DOPC      H18Z          -11.5652429872       -6.5025371360       -1.9189052063  MEMB      6               0.0000000000
      1329        35  DOPC      N             -11.8302884273       10.0170896507       20.1149390306  MEMB      7               0.0000000000
      1330        35  DOPC      C12           -10.3934948981       10.2757082503       20.3689763023  MEMB      7               0.0000000000
      1331        35  DOPC      H12A           -9.8765708228        9.3400500887       20.2149203890  MEMB      7               0.0000000000
      1332        35  DOPC      H12B          -10.2346350208       10.6490120550       21.3698797400  MEMB      7               0.0000000000
      1333        35  DOPC      C13           -12.6527558006       11.2443903401       19.8365989041  MEMB      7               0.0000000000
      1334        35  DOPC      H13A          -12.2684569932       11.7723315304       18.9763708109  MEMB      7               0.0000000000
      1335        35  DOPC      H13B          -13.6652377350       10.9640414372       19.5862295306  MEMB      7               0.0000000000
      1336        35  DOPC      H13C          -12.5264524793       11.7759269245       20.7682192187  MEMB      7               0.0000000000
      1337        35  DOPC      C14           -12.4615156691        9.4167626468       21.3340211514  MEMB      7               0.0000000000
      1338        35  DOPC      H14A          -13.5212767575        9.3114545187       21.1545309952  MEMB      7               0.0000000000
      1339        35  DOPC      H14B          -12.0546907309        8.4256775682       21.4705635757  MEMB      7               0.0000000000
      1340        35  DOPC      H14C          -12.3099622037        9.9512287524       22.2601838396  MEMB      7               0.0000000000
      1341        35  DOPC      C15           -11.9727418917        9.0688892949       18.9700912925  MEMB      7               0.0000000000
      1342        35  DOPC      H15A          -11.1766669664        8.3390772993       18.9638377047  MEMB      7               0.0000000000
      1343        35  DOPC      H15B          -11.9829951815        9.6467926503       18.0577741339  MEMB      7               0.0000000000
      1344        35  DOPC      H15C          -12.9919201941        8.7546139194       18.8000711449  MEMB      7               0.0000000000
      1345        35  DOPC      C11            -9.6293548465       11.3018568154       19.5788349391  MEMB      7               0.0000000000
      1346        35  DOPC      H11A          -10.1873534087       12.2618623244       19.5421188004  MEMB      7               0.0000000000
      1347        35  DOPC      H11B           -8.6439953693       11.4284213056       20.0761971761  MEMB      7               0.0000000000
      1348        35  DOPC      P              -8.0553077128       10.2405409480       17.7531572917  MEMB      7               0.0000000000
      1349        35  DOPC      O13            -8.2604372210        9.4503691847       16.4850014120  MEMB      7               0.0000000000
      1350        35  DOPC      O14            -7.5725310868        9.4971467785       18.9183120863  MEMB      7               0.0000000000
      1351        35  DOPC      O12            -9.4673843590       10.9334769092       18.1857602564  MEMB      7               0.0000000000
      1352        35  DOPC      O11            -7.0944049397       11.4750116988       17.4543073310  MEMB      7               0.0000000000
      1353        35  DOPC      C1             -7.4472413186       12.6330511398       16.7772999844  MEMB      7               0.0000000000
      1354        35  DOPC      HA             -6.8425663034       13.4275505694       17.2645987326  MEMB      7               0.0000000000
      1355        35  DOPC      HB             -8.5027349867       12.9004442652       16.9981058994  MEMB      7               0.0000000000
      1356        35  DOPC      C2             -7.1037675173       12.6118008817       15.2458043219  MEMB      7               0.0000000000
      1357        35  DOPC      HS             -7.0054272081       13.7032591355       15.0631332567  MEMB      7               0.0000000000
      1358        35  DOPC      O21            -8.1441438264       12.1085494515       14.4141165426  MEMB      7               0.0000000000
      1359        35  DOPC      C21            -9.1740711466       12.8668153119       14.1696998013  MEMB      7               0.0000000000
      1360        35  DOPC      O22            -9.2853459186       14.0674800611       14.5876136883  MEMB      7               0.0000000000
      1361        35  DOPC      C22           -10.2484524710       12.2107934842       13.1967096894  MEMB      7               0.0000000000
      1362        35  DOPC      H2R           -10.4573008534       11.2763708822       13.7602323858  MEMB      7               0.0000000000
      1363        35  DOPC      H2S            -9.7341346175       11.9685408501       12.2421881928  MEMB      7               0.0000000000
      1364        35  DOPC      C3             -5.8766784867       11.7933033415       14.8618917449  MEMB      7               0.0000000000
      1365        35  DOPC      HX             -6.0409106194       10.7302472272       15.1398495902  MEMB      7               0.0000000000
      1366        35  DOPC      HY             -5.0376258757       12.2249451616       15.4484039042  MEMB      7               0.0000000000
      1367        35  DOPC      O31            -5.7259996487       11.8322779865       13.5047485465  MEMB      7               0.0000000000
      1368        35  DOPC      C31            -4.9589681063       12.8902070984       13.0061489594  MEMB      7               0.0000000000
      1369        35  DOPC      O32            -4.6160363013       13.8579971105       13.6483724564  MEMB      7               0.0000000000
      1370        35  DOPC      C32            -4.6799119832       12.5787915926       11.5626179220  MEMB      7               0.0000000000
      1371        35  DOPC      H2X            -3.6428955516       12.9728895354       11.5025766769  MEMB      7               0.0000000000
      1372        35  DOPC      H2Y            -4.6304127583       11.4772022239       11.4270750936  MEMB      7               0.0000000000
      1373        35  DOPC      C23           -11.4954811282       13.1068845579       12.9799835627  MEMB      7               0.0000000000
      1374        35  DOPC      H3R           -11.1646028818       14.0949293433       12.5944865801  MEMB      7               0.0000000000
      1375        35  DOPC      H3S           -11.9447041446       13.2898077767       13.9795130757  MEMB      7               0.0000000000
      1376        35  DOPC      C24           -12.5680833178       12.6838060093       11.9600765479  MEMB      7               0.0000000000
      1377        35  DOPC      H4R           -13.1607218802       13.6185033818       11.8629084501  MEMB      7               0.0000000000
      1378        35  DOPC      H4S           -13.1130271063       11.7946930078       12.3432675055  MEMB      7               0.0000000000
      1379        35  DOPC      C25           -12.0756735700       12.2875370331       10.5743965627  MEMB      7               0.0000000000
      1380        35  DOPC      H5R           -11.2960738178       11.5279511202       10.7970499446  MEMB      7               0.0000000000
      1381        35  DOPC      H5S           -11.7658714524       13.1200026929        9.9070554658  MEMB      7               0.0000000000
      1382        35  DOPC      C26           -13.0394741859       11.5555348927        9.5149328739  MEMB      7               0.0000000000
      1383        35  DOPC      H6R           -13.8992547922       12.2234854640        9.2937080587  MEMB      7               0.0000000000
      1384        35  DOPC      H6S           -13.4717527271       10.7176453747       10.1026377841  MEMB      7               0.0000000000
      1385        35  DOPC      C27           -12.2982001731       10.9217417500        8.2809668765  MEMB      7               0.0000000000
      1386        35  DOPC      H7R           -11.6906585675       10.0912271998        8.6998467931  MEMB      7               0.0000000000
      1387        35  DOPC      H7S           -11.5950137630       11.6797215724        7.8743758102  MEMB      7               0.0000000000
      1388        35  DOPC      C28           -13.1965567124       10.4445420921        7.0855606873  MEMB      7               0.0000000000
      1389        35  DOPC      H8R           -13.5175071652       11.3229542406        6.4858077329  MEMB      7               0.0000000000
      1390        35  DOPC      H8S           -14.0582664820        9.9221386346        7.5533992331  MEMB      7               0.0000000000
      1391        35  DOPC      C29           -12.5102579274        9.4196902855        6.2044311449  MEMB      7               0.0000000000
      1392        35  DOPC      H9R           -12.9139457931        8.4024788089        6.3154136839  MEMB      7               0.0000000000
      1393        35  DOPC      C210          -11.7146259788        9.7034738764        5.2031575505  MEMB      7               0.0000000000
      1394        35  DOPC      H10R          -11.3510422980        8.8586880801        4.5997141264  MEMB      7               0.0000000000
      1395        35  DOPC      C211          -11.3142126676       11.1356557235        4.7392520675  MEMB      7               0.0000000000
      1396        35  DOPC      H11R          -10.2032889685       11.1424886866        4.7281698565  MEMB      7               0.0000000000
      1397        35  DOPC      H11S          -11.6605627929       11.9842534091        5.3671410610  MEMB      7               0.0000000000
      1398        35  DOPC      C212          -11.7407785099       11.4674056418        3.3245984844  MEMB      7               0.0000000000
      1399        35  DOPC      H12R          -12.7920449505       11.1865893935        3.1003188291  MEMB      7               0.0000000000
      1400        35  DOPC      H12S          -10.9786753066       11.0043922137        2.6619235299  MEMB      7               0.0000000000
      1401        35  DOPC      C213          -11.4885920860       12.9755195426        2.9341238686  MEMB      7               0.0000000000
      1402        35  DOPC      H13R          -10.4843484137       13.1903617872        3.3579851808  MEMB      7               0.0000000000
      1403        35  DOPC      H13S          -12.3002674101       13.5641047517        3.4127383846  MEMB      7               0.0000000000
      1404        35  DOPC      C214          -11.5383419564       13.1920495330        1.4516128023  MEMB      7               0.0000000000
      1405        35  DOPC      H14R          -11.3512278291       14.2646072899        1.2304150694  MEMB      7               0.0000000000
      1406        35  DOPC      H14S          -12.5766880609       12.9230788986        1.1621073681  MEMB      7               0.0000000000
      1407        35  DOPC      C215          -10.4951678522       12.4588146218        0.6085456050  MEMB      7               0.0000000000
      1408        35  DOPC      H15R          -10.6089467287       11.3577524482        0.7036106548  MEMB      7               0.0000000000
      1409        35  DOPC      H15S           -9.4676660522       12.5868781004        1.0112370118  MEMB      7               0.0000000000
      1410        35  DOPC      C216          -10.2910889578       12.9345717449       -0.8888322306  MEMB      7               0.0000000000
      1411        35  DOPC      H16R           -9.7578176190       13.8985670065       -0.7451104164  MEMB      7               0.0000000000
      1412        35  DOPC      H16S          -11.2348884736       13.1213528800       -1.4444191056  MEMB      7               0.0000000000
      1413        35  DOPC      C217           -9.4798277563       11.9035724319       -1.7045512761  MEMB      7               0.0000000000
      1414        35  DOPC      H17R           -8.4441327845       11.8163312204       -1.3120647344  MEMB      7               0.0000000000
      1415        35  DOPC      H17S           -9.4815206320       12.4202593828       -2.6880932169  MEMB      7               0.0000000000
      1416        35  DOPC      C218          -10.1238163599       10.5350055927       -1.8587303710  MEMB      7               0.0000000000
      1417        35  DOPC      H18R           -9.7727240377       10.0172549536       -2.7768753454  MEMB      7               0.0000000000
      1418        35  DOPC      H18S          -11.1921623040       10.7812997680       -2.0384427391  MEMB      7               0.0000000000
      1419        35  DOPC      H18T           -9.9947355582        9.8769392473       -0.9729494063  MEMB      7               0.0000000000
      1420        35  DOPC      C33            -5.4430381073       13.4887172442       10.5859969101  MEMB      7               0.0000000000
      1421        35  DOPC      H3X            -4.8492707250       13.6719846290        9.6650327634  MEMB      7               0.0000000000
      1422        35  DOPC      H3Y            -5.5803516630       14.5190110608       10.9783747979  MEMB      7               0.0000000000
      1423        35  DOPC      C34            -6.8399243682       12.9177009590       10.1605849307  MEMB      7               0.0000000000
      1424        35  DOPC      H4X            -7.2185228884       12.4677571154       11.1032069721  MEMB      7               0.0000000000
      1425        35  DOPC      H4Y            -6.7878704501       12.1206512536        9.3883656232  MEMB      7               0.0000000000
      1426        35  DOPC      C35            -7.8298940493       13.9276516576        9.5507904866  MEMB      7               0.0000000000
      1427        35  DOPC      H5X            -7.8109018282       14.8057001513       10.2312251836  MEMB      7               0.0000000000
      1428        35  DOPC      H5Y            -8.8659112628       13.5289192510        9.5060491099  MEMB      7               0.0000000000
      1429        35  DOPC      C36            -7.4301924078       14.3168378397        8.0660418028  MEMB      7               0.0000000000
      1430        35  DOPC      H6X            -6.7130523594       13.5900097418        7.6281466706  MEMB      7               0.0000000000
      1431        35  DOPC      H6Y            -8.3513990240       14.2839033653        7.4458692306  MEMB      7               0.0000000000
      1432        35  DOPC      C37            -6.7299410966       15.6566885755        7.7473935186  MEMB      7               0.0000000000
      1433        35  DOPC      H7X            -5.8758595490       15.7240376672        8.4547339928  MEMB      7               0.0000000000
      1434        35  DOPC      H7Y            -6.3994132477       15.7207735941        6.6886374062  MEMB      7               0.0000000000
      1435        35  DOPC      C38            -7.7934134273       16.7811475009        8.1477161718  MEMB      7               0.0000000000
      1436        35  DOPC      H8X            -7.2697143206       17.7469433425        7.9824915920  MEMB      7               0.0000000000
      1437        35  DOPC      H8Y            -7.9446574628       16.7035883000        9.2456372637  MEMB      7               0.0000000000
      1438        35  DOPC      C39            -9.1847839485       16.7468284861        7.4595198917  MEMB      7               0.0000000000
      1439        35  DOPC      H9X           -10.0047337963       16.3414370621        8.0705350869  MEMB      7               0.0000000000
      1440        35  DOPC      C310           -9.4002900838       17.2155036066        6.2356642854  MEMB      7               0.0000000000
      1441        35  DOPC      H10X          -10.4297288466       17.0682775135        5.8770832824  MEMB      7               0.0000000000
      1442        35  DOPC      C311           -8.3553483201       17.8565684953        5.3051960499  MEMB      7               0.0000000000
      1443        35  DOPC      H11X           -7.2827226196       17.7200963196        5.5604806201  MEMB      7               0.0000000000
      1444        35  DOPC      H11Y           -8.4505792979       18.9634543326        5.3127059941  MEMB      7               0.0000000000
      1445        35  DOPC      C312           -8.3825103266       17.3123093564        3.8344553760  MEMB      7               0.0000000000
      1446        35  DOPC      H12X           -7.5094736306       17.7634005623        3.3161466498  MEMB      7               0.0000000000
      1447        35  DOPC      H12Y           -9.2456654419       17.7837669361        3.3177231776  MEMB      7               0.0000000000
      1448        35  DOPC      C313           -8.3688019227       15.8097566472        3.6392794982  MEMB      7               0.0000000000
      1449        35  DOPC      H13X           -8.9670626842       15.3837667136        4.4729086252  MEMB      7               0.0000000000
      1450        35  DOPC      H13Y           -9.0052441722       15.5219951591        2.7753033335  MEMB      7               0.0000000000
      1451        35  DOPC      C314           -7.0068708330       15.0177960132        3.4167811530  MEMB      7               0.0000000000
      1452        35  DOPC      H14X           -6.5119109161       15.2990826041        2.4627302877  MEMB      7               0.0000000000
      1453        35  DOPC      H14Y           -6.2102840184       15.4033895447        4.0884119339  MEMB      7               0.0000000000
      1454        35  DOPC      C315           -7.1187700727       13.5525451462        3.6805915757  MEMB      7               0.0000000000
      1455        35  DOPC      H15X           -7.5859983820       13.0716336302        2.7947338769  MEMB      7               0.0000000000
      1456        35  DOPC      H15Y           -7.8504740748       13.5017133691        4.5150647111  MEMB      7               0.0000000000
      1457        35  DOPC      C316           -5.8165882616       12.7726105383        4.1085217879  MEMB      7               0.0000000000
      1458        35  DOPC      H16X           -5.3418373714       13.5225684748        4.7767252960  MEMB      7               0.0000000000
      1459        35  DOPC      H16Y           -6.1181417432       11.9022718875        4.7297281051  MEMB      7               0.0000000000
      1460        35  DOPC      C317           -4.9784910530       12.3492765128        2.9195173762  MEMB      7               0.0000000000
      1461        35  DOPC      H17X           -5.2339032284       11.3342374204        2.5469839010  MEMB      7               0.0000000000
      1462        35  DOPC      H17Y           -5.1698001776       13.0591486582        2.0865687993  MEMB      7               0.0000000000
      1463        35  DOPC      C318           -3.4650779284       12.2195822063        3.1679586510  MEMB      7               0.0000000000
      1464        35  DOPC      H18X           -2.9224301914       12.1272561520        2.2029043354  MEMB      7               0.0000000000
      1465        35  DOPC      H18Y           -2.9765697015       13.1291260049        3.5783369407  MEMB      7               0.0000000000
      1466        35  DOPC      H18Z           -3.1744475518       11.4416273503        3.9059563581  MEMB      7               0.0000000000
      1467        36  DOPC      N              -3.0639830881      -11.3266642090       17.9448630912  MEMB      8               0.0000000000
      1468        36  DOPC      C12            -2.8832174306      -12.2574881766       19.1914826599  MEMB      8               0.0000000000
      1469        36  DOPC      H12A           -2.3164451913      -11.5769903100       19.8096182431  MEMB      8               0.0000000000
      1470        36  DOPC      H12B           -2.3226580656      -13.1240007599       18.8731603672  MEMB      8               0.0000000000
      1471        36  DOPC      C13            -3.7299449873      -10.0663923617       18.3361591114  MEMB      8               0.0000000000
      1472        36  DOPC      H13A           -4.7481949765      -10.3352048857       18.5755474296  MEMB      8               0.0000000000
      1473        36  DOPC      H13B           -3.2607816712       -9.5701789846       19.1728537252  MEMB      8               0.0000000000
      1474        36  DOPC      H13C           -3.8848792349       -9.3146867425       17.5763341824  MEMB      8               0.0000000000
      1475        36  DOPC      C14            -3.6929899714      -12.0572162245       16.7727501100  MEMB      8               0.0000000000
      1476        36  DOPC      H14A           -3.3090291824      -13.0591245001       16.6496483638  MEMB      8               0.0000000000
      1477        36  DOPC      H14B           -4.7666524529      -12.1221416403       16.8698773325  MEMB      8               0.0000000000
      1478        36  DOPC      H14C           -3.4534858815      -11.5120060187       15.8717598433  MEMB      8               0.0000000000
      1479        36  DOPC      C15            -1.7024004759      -10.9775151516       17.5291004469  MEMB      8               0.0000000000
      1480        36  DOPC      H15A           -1.2243765231      -10.5043901843       18.3741127630  MEMB      8               0.0000000000
      1481        36  DOPC      H15B           -1.8099300092      -10.2875900505       16.7051823941  MEMB      8               0.0000000000
      1482        36  DOPC      H15C           -1.1638197944      -11.8504447674       17.1909811825  MEMB      8               0.0000000000
      1483        36  DOPC      C11            -4.1042235747      -12.8147084129       20.0215565671  MEMB      8               0.0000000000
      1484        36  DOPC      H11A           -3.7744225798      -13.2368232883       20.9948865875  MEMB      8               0.0000000000
      1485        36  DOPC      H11B           -4.7094786219      -11.8928867950       20.1565833588  MEMB      8               0.0000000000
      1486        36  DOPC      P              -5.8864253710      -14.7101660801       19.9032332491  MEMB      8               0.0000000000
      1487        36  DOPC      O13            -6.4613437754      -14.1797770651       21.1868089104  MEMB      8               0.0000000000
      1488        36  DOPC      O14            -5.4533740459      -16.1081110616       19.9691808919  MEMB      8               0.0000000000
      1489        36  DOPC      O12            -4.7701806779      -13.8338719001       19.3371838986  MEMB      8               0.0000000000
      1490        36  DOPC      O11            -7.0094248544      -14.6205913557       18.8076810624  MEMB      8               0.0000000000
      1491        36  DOPC      C1             -7.4515943183      -13.3777040931       18.2669900383  MEMB      8               0.0000000000
      1492        36  DOPC      HA             -7.0053094855      -12.4716199936       18.7297668418  MEMB      8               0.0000000000
      1493        36  DOPC      HB             -8.5177321250      -13.2342156755       18.5446270081  MEMB      8               0.0000000000
      1494        36  DOPC      C2             -7.4457677663      -13.2892257924       16.7403096072  MEMB      8               0.0000000000
      1495        36  DOPC      HS             -8.3758381950      -13.7814599037       16.3839446327  MEMB      8               0.0000000000
      1496        36  DOPC      O21            -6.2021480783      -13.8126757102       16.1653520184  MEMB      8               0.0000000000
      1497        36  DOPC      C21            -6.3475168691      -14.7915607503       15.2265926426  MEMB      8               0.0000000000
      1498        36  DOPC      O22            -7.4221745611      -15.3270284460       14.8946337986  MEMB      8               0.0000000000
      1499        36  DOPC      C22            -5.0024634688      -15.2226438069       14.7108940864  MEMB      8               0.0000000000
      1500        36  DOPC      H2R            -4.6633932926      -16.0545326502       15.3645863779  MEMB      8               0.0000000000
      1501        36  DOPC      H2S            -4.2908266488      -14.3913741308       14.9029484269  MEMB      8               0.0000000000
      1502        36  DOPC      C3             -7.6638369261      -11.8243196426       16.2777369297  MEMB      8               0.0000000000
      1503        36  DOPC      HX             -6.8571283497      -11.1221351439       16.5785345579  MEMB      8               0.0000000000
      1504        36  DOPC      HY             -8.6478209255      -11.5606829491       16.7211238810  MEMB      8               0.0000000000
      1505        36  DOPC      O31            -7.7216680359      -11.7904470431       14.8704173161  MEMB      8               0.0000000000
      1506        36  DOPC      C31            -6.6951495216      -11.2204337519       14.1541425021  MEMB      8               0.0000000000
      1507        36  DOPC      O32            -5.8084485149      -10.5261083315       14.6214933086  MEMB      8               0.0000000000
      1508        36  DOPC      C32            -6.6922146646      -11.6016145557       12.6841306100  MEMB      8               0.0000000000
      1509        36  DOPC      H2X            -6.4561504339      -12.6802594231       12.5611672166  MEMB      8               0.0000000000
      1510        36  DOPC      H2Y            -7.7770713537      -11.5928925443       12.4446928276  MEMB      8               0.0000000000
      1511        36  DOPC      C23            -4.8714724565      -15.6213071602       13.1775414456  MEMB      8               0.0000000000
      1512        36  DOPC      H3R            -5.3379291341      -14.7674438029       12.6412050002  MEMB      8               0.0000000000
      1513        36  DOPC      H3S            -5.3761857400      -16.5595692622       12.8625021687  MEMB      8               0.0000000000
      1514        36  DOPC      C24            -3.4225067630      -15.9144060959       12.6316888618  MEMB      8               0.0000000000
      1515        36  DOPC      H4R            -2.9552293078      -16.7938223256       13.1242335308  MEMB      8               0.0000000000
      1516        36  DOPC      H4S            -2.7987746848      -15.0530669204       12.9532073930  MEMB      8               0.0000000000
      1517        36  DOPC      C25            -3.3541741453      -16.0046145097       11.0833225177  MEMB      8               0.0000000000
      1518        36  DOPC      H5R            -4.3241370383      -16.4651856539       10.7980732116  MEMB      8               0.0000000000
      1519        36  DOPC      H5S            -2.4653315648      -16.5693267920       10.7292317604  MEMB      8               0.0000000000
      1520        36  DOPC      C26            -3.3835802612      -14.6384005145       10.4075279020  MEMB      8               0.0000000000
      1521        36  DOPC      H6R            -2.4920423859      -14.0513844681       10.7155751681  MEMB      8               0.0000000000
      1522        36  DOPC      H6S            -4.3749641670      -14.1596752979       10.5568632519  MEMB      8               0.0000000000
      1523        36  DOPC      C27            -3.3755074779      -14.6615206047        8.8739015785  MEMB      8               0.0000000000
      1524        36  DOPC      H7R            -4.3812044449      -15.0557580657        8.6141485316  MEMB      8               0.0000000000
      1525        36  DOPC      H7S            -2.7047073794      -15.4375195761        8.4470833331  MEMB      8               0.0000000000
      1526        36  DOPC      C28            -2.9587857218      -13.2795988468        8.2773777740  MEMB      8               0.0000000000
      1527        36  DOPC      H8R            -2.0902725177      -12.8829614336        8.8454312733  MEMB      8               0.0000000000
      1528        36  DOPC      H8S            -3.7629290897      -12.5652772202        8.5556201397  MEMB      8               0.0000000000
      1529        36  DOPC      C29            -2.7179691277      -13.2428431476        6.7873904374  MEMB      8               0.0000000000
      1530        36  DOPC      H9R            -1.7679979299      -13.6820465649        6.4487831668  MEMB      8               0.0000000000
      1531        36  DOPC      C210           -3.4125216039      -12.7667099722        5.7628299240  MEMB      8               0.0000000000
      1532        36  DOPC      H10R           -2.9591316329      -12.8700891139        4.7659592167  MEMB      8               0.0000000000
      1533        36  DOPC      C211           -4.7302104785      -12.0838889656        5.6950540491  MEMB      8               0.0000000000
      1534        36  DOPC      H11R           -4.6544646351      -11.3065357251        4.9049232434  MEMB      8               0.0000000000
      1535        36  DOPC      H11S           -5.0210268909      -11.6552103766        6.6778974779  MEMB      8               0.0000000000
      1536        36  DOPC      C212           -5.9462221313      -13.0092906724        5.4257173360  MEMB      8               0.0000000000
      1537        36  DOPC      H12R           -6.8404787563      -12.3848203457        5.6370532029  MEMB      8               0.0000000000
      1538        36  DOPC      H12S           -6.0595189293      -13.9214356552        6.0497973391  MEMB      8               0.0000000000
      1539        36  DOPC      C213           -6.0537027840      -13.1548414883        3.8988095846  MEMB      8               0.0000000000
      1540        36  DOPC      H13R           -5.1546265427      -13.6714774183        3.4999736669  MEMB      8               0.0000000000
      1541        36  DOPC      H13S           -6.0806701813      -12.1491573944        3.4274366840  MEMB      8               0.0000000000
      1542        36  DOPC      C214           -7.3413831285      -13.9870325590        3.5301044564  MEMB      8               0.0000000000
      1543        36  DOPC      H14R           -8.2817820103      -13.5360776927        3.9130016931  MEMB      8               0.0000000000
      1544        36  DOPC      H14S           -7.2150676845      -15.0222212838        3.9131820966  MEMB      8               0.0000000000
      1545        36  DOPC      C215           -7.7162037706      -13.8526708780        2.0676261686  MEMB      8               0.0000000000
      1546        36  DOPC      H15R           -6.9736108648      -14.3760135959        1.4281034627  MEMB      8               0.0000000000
      1547        36  DOPC      H15S           -7.6419364405      -12.7911777792        1.7481940808  MEMB      8               0.0000000000
      1548        36  DOPC      C216           -9.0722032143      -14.4506182716        1.5679804699  MEMB      8               0.0000000000
      1549        36  DOPC      H16R           -9.8213524311      -13.9321182008        2.2037902234  MEMB      8               0.0000000000
      1550        36  DOPC      H16S           -9.1825462818      -15.5123098720        1.8761300387  MEMB      8               0.0000000000
      1551        36  DOPC      C217           -9.3948151465      -14.4093674276        0.1109290670  MEMB      8               0.0000000000
      1552        36  DOPC      H17R          -10.5054427916      -14.3941167412        0.0865491999  MEMB      8               0.0000000000
      1553        36  DOPC      H17S           -9.1308011506      -15.3644016844       -0.3915926309  MEMB      8               0.0000000000
      1554        36  DOPC      C218           -8.8519026949      -13.2025590120       -0.7036819288  MEMB      8               0.0000000000
      1555        36  DOPC      H18R           -7.7506641752      -13.2874061905       -0.8236647330  MEMB      8               0.0000000000
      1556        36  DOPC      H18S           -8.8517777672      -12.3219071739       -0.0263537240  MEMB      8               0.0000000000
      1557        36  DOPC      H18T           -9.3905437970      -13.0091679643       -1.6559353077  MEMB      8               0.0000000000
      1558        36  DOPC      C33            -6.1574184018      -10.5900293670       11.6849274534  MEMB      8               0.0000000000
      1559        36  DOPC      H3X            -6.6277924293       -9.5987643836       11.8594637183  MEMB      8               0.0000000000
      1560        36  DOPC      H3Y            -6.4881998610      -10.8817472441       10.6652185845  MEMB      8               0.0000000000
      1561        36  DOPC      C34            -4.5338397172      -10.6164368561       11.6192129700  MEMB      8               0.0000000000
      1562        36  DOPC      H4X            -4.0937737194      -11.4562903444       11.0401540675  MEMB      8               0.0000000000
      1563        36  DOPC      H4Y            -4.2012783660      -10.6838949617       12.6771225099  MEMB      8               0.0000000000
      1564        36  DOPC      C35            -3.8000114006       -9.3370218848       11.1797005870  MEMB      8               0.0000000000
      1565        36  DOPC      H5X            -2.7130833582       -9.4097498823       11.3979181367  MEMB      8               0.0000000000
      1566        36  DOPC      H5Y            -4.2905759899       -8.5614731261       11.8059521919  MEMB      8               0.0000000000
      1567        36  DOPC      C36            -4.1384062276       -8.9495234683        9.7228324145  MEMB      8               0.0000000000
      1568        36  DOPC      H6X            -4.2210527744       -9.8944689580        9.1444129533  MEMB      8               0.0000000000
      1569        36  DOPC      H6Y            -5.1346629243       -8.4579037843        9.7126540047  MEMB      8               0.0000000000
      1570        36  DOPC      C37            -3.1645332068       -7.9014715003        9.2061856049  MEMB      8               0.0000000000
      1571        36  DOPC      H7X            -3.5379058915       -6.8810126697        9.4376538609  MEMB      8               0.0000000000
      1572        36  DOPC      H7Y            -2.1667720091       -8.0658259789        9.6663826632  MEMB      8               0.0000000000
      1573        36  DOPC      C38            -3.1768093162       -7.8161776734        7.5947859373  MEMB      8               0.0000000000
      1574        36  DOPC      H8X            -2.4418959671       -7.0845335989        7.1961371937  MEMB      8               0.0000000000
      1575        36  DOPC      H8Y            -4.1700680222       -7.4234559825        7.2889633361  MEMB      8               0.0000000000
      1576        36  DOPC      C39            -2.8533481797       -9.0818614173        6.8265107110  MEMB      8               0.0000000000
      1577        36  DOPC      H9X            -2.7552875363      -10.0348730901        7.3670227198  MEMB      8               0.0000000000
      1578        36  DOPC      C310           -2.5083539292       -9.1495363327        5.5541865479  MEMB      8               0.0000000000
      1579        36  DOPC      H10X           -2.1307993492      -10.1083914139        5.1694144819  MEMB      8               0.0000000000
      1580        36  DOPC      C311           -2.3486340437       -8.0720751120        4.5264182680  MEMB      8               0.0000000000
      1581        36  DOPC      H11X           -1.2992565796       -8.0487637282        4.1622972408  MEMB      8               0.0000000000
      1582        36  DOPC      H11Y           -2.5043919973       -7.0090173899        4.8092052323  MEMB      8               0.0000000000
      1583        36  DOPC      C312           -3.1743212958       -8.3783063119        3.2426714950  MEMB      8               0.0000000000
      1584        36  DOPC      H12X           -2.9236449246       -7.5753600988        2.5168884901  MEMB      8               0.0000000000
      1585        36  DOPC      H12Y           -4.2621771392       -8.3473456477        3.4661262644  MEMB      8               0.0000000000
      1586        36  DOPC      C313           -2.8048461252       -9.6541496542        2.5765087506  MEMB      8               0.0000000000
      1587        36  DOPC      H13X           -1.7244235298       -9.8963251111        2.6679397008  MEMB      8               0.0000000000
      1588        36  DOPC      H13Y           -3.4451939806      -10.3948252202        3.1015577477  MEMB      8               0.0000000000
      1589        36  DOPC      C314           -3.1784663982       -9.6596636568        1.0973808026  MEMB      8               0.0000000000
      1590        36  DOPC      H14X           -2.5263436962       -8.9572503186        0.5355316976  MEMB      8               0.0000000000
      1591        36  DOPC      H14Y           -2.8762165737      -10.6614557907        0.7240463969  MEMB      8               0.0000000000
      1592        36  DOPC      C315           -4.6420252854       -9.3723852065        0.6154304049  MEMB      8               0.0000000000
      1593        36  DOPC      H15X           -4.6035873406       -9.5512756421       -0.4803979916  MEMB      8               0.0000000000
      1594        36  DOPC      H15Y           -4.9046912715       -8.3048411405        0.7756721876  MEMB      8               0.0000000000
      1595        36  DOPC      C316           -5.7066116464      -10.1134969729        1.3786837343  MEMB      8               0.0000000000
      1596        36  DOPC      H16X           -5.5000484618      -11.2050589423        1.3907128937  MEMB      8               0.0000000000
      1597        36  DOPC      H16Y           -5.6466706395       -9.7112055775        2.4125543973  MEMB      8               0.0000000000
      1598        36  DOPC      C317           -7.1201575089       -9.7075506301        0.9823048272  MEMB      8               0.0000000000
      1599        36  DOPC      H17X           -7.0244594371       -9.5978623364       -0.1191165501  MEMB      8               0.0000000000
      1600        36  DOPC      H17Y           -7.7856551600      -10.5971734729        0.9846171079  MEMB      8               0.0000000000
      1601        36  DOPC      C318           -7.8519705557       -8.4794000140        1.6704654331  MEMB      8               0.0000000000
      1602        36  DOPC      H18X           -7.5911060293       -7.4543641180        1.3305067722  MEMB      8               0.0000000000
      1603        36  DOPC      H18Y           -8.9102523513       -8.6756161809        1.3950383561  MEMB      8               0.0000000000
      1604        36  DOPC      H18Z           -7.6128105318       -8.6019660526        2.7484733654  MEMB      8               0.0000000000
      1605        37  DOPC      N               9.4787143891       11.7903834473       20.8624598002  MEMB      9               0.0000000000
      1606        37  DOPC      C12             8.8354676361       11.5281807373       19.5457148747  MEMB      9               0.0000000000
      1607        37  DOPC      H12A            7.8728610294       12.0172454076       19.5702982851  MEMB      9               0.0000000000
      1608        37  DOPC      H12B            8.6514613500       10.4648160729       19.5033214115  MEMB      9               0.0000000000
      1609        37  DOPC      C13             9.8148185637       13.2216128410       21.1863613637  MEMB      9               0.0000000000
      1610        37  DOPC      H13A           10.4288235585       13.1442593998       22.0714683585  MEMB      9               0.0000000000
      1611        37  DOPC      H13B           10.4527984616       13.6705380925       20.4394692494  MEMB      9               0.0000000000
      1612        37  DOPC      H13C            8.9188747013       13.8077759258       21.3281261941  MEMB      9               0.0000000000
      1613        37  DOPC      C14            10.7239195471       10.9416661338       21.0222274224  MEMB      9               0.0000000000
      1614        37  DOPC      H14A           11.5284748346       11.1328683560       20.3275818394  MEMB      9               0.0000000000
      1615        37  DOPC      H14B           11.1712542441       11.1373757448       21.9855495850  MEMB      9               0.0000000000
      1616        37  DOPC      H14C           10.4873311665        9.8925013233       20.9238465576  MEMB      9               0.0000000000
      1617        37  DOPC      C15             8.4121762485       11.3643691796       21.9017429241  MEMB      9               0.0000000000
      1618        37  DOPC      H15A            7.9157511523       10.4103115062       21.8030699576  MEMB      9               0.0000000000
      1619        37  DOPC      H15B            7.6214437755       12.0936925559       21.9978142821  MEMB      9               0.0000000000
      1620        37  DOPC      H15C            8.8925688794       11.4282716787       22.8669054509  MEMB      9               0.0000000000
      1621        37  DOPC      C11             9.6765278861       11.7504541969       18.2767795412  MEMB      9               0.0000000000
      1622        37  DOPC      H11A           10.5510749403       11.1153704068       18.0195695540  MEMB      9               0.0000000000
      1623        37  DOPC      H11B            9.0293866307       11.7742536210       17.3740266851  MEMB      9               0.0000000000
      1624        37  DOPC      P              10.7052838886       14.0172907411       17.2560577893  MEMB      9               0.0000000000
      1625        37  DOPC      O13            12.0096836979       13.5873348859       16.7391516051  MEMB      9               0.0000000000
      1626        37  DOPC      O14            10.7236912516       15.4267132939       17.7406319715  MEMB      9               0.0000000000
      1627        37  DOPC      O12            10.2446741639       13.0415417341       18.3849110724  MEMB      9               0.0000000000
      1628        37  DOPC      O11             9.6459804254       13.6861617036       16.0839616728  MEMB      9               0.0000000000
      1629        37  DOPC      C1              8.3273616855       14.1515116962       16.1984237839  MEMB      9               0.0000000000
      1630        37  DOPC      HA              8.1541666014       14.7937403221       17.0882928980  MEMB      9               0.0000000000
      1631        37  DOPC      HB              7.5657610455       13.3435991433       16.2379535927  MEMB      9               0.0000000000
      1632        37  DOPC      C2              7.8347674760       15.0795371486       15.0927703204  MEMB      9               0.0000000000
      1633        37  DOPC      HS              6.7559016549       15.2731860178       15.2740693478  MEMB      9               0.0000000000
      1634        37  DOPC      O21             8.1762855831       14.3629391701       13.8487113301  MEMB      9               0.0000000000
      1635        37  DOPC      C21             7.6216544339       14.7423096811       12.7681548781  MEMB      9               0.0000000000
      1636        37  DOPC      O22             6.8412816735       15.6186871716       12.6124951259  MEMB      9               0.0000000000
      1637        37  DOPC      C22             8.0949656532       13.8536355232       11.6450573608  MEMB      9               0.0000000000
      1638        37  DOPC      H2R             8.0963784830       12.7813200578       11.9356743908  MEMB      9               0.0000000000
      1639        37  DOPC      H2S             9.0826519825       14.1931573567       11.2662147333  MEMB      9               0.0000000000
      1640        37  DOPC      C3              8.5554307775       16.4400132796       15.1487874488  MEMB      9               0.0000000000
      1641        37  DOPC      HX              8.2178901665       16.8603930609       16.1202136202  MEMB      9               0.0000000000
      1642        37  DOPC      HY              8.1737548755       17.1144885469       14.3527176521  MEMB      9               0.0000000000
      1643        37  DOPC      O31            10.0038559998       16.2491366115       14.9976687793  MEMB      9               0.0000000000
      1644        37  DOPC      C31            10.5169524894       16.5992965727       13.7754126754  MEMB      9               0.0000000000
      1645        37  DOPC      O32             9.9021540243       17.1016175102       12.8669469622  MEMB      9               0.0000000000
      1646        37  DOPC      C32            12.0481985777       16.2377735197       13.7210866108  MEMB      9               0.0000000000
      1647        37  DOPC      H2X            12.6217526094       17.1891125089       13.7034606409  MEMB      9               0.0000000000
      1648        37  DOPC      H2Y            12.3216757132       15.5864051109       14.5785543234  MEMB      9               0.0000000000
      1649        37  DOPC      C23             6.9808281774       13.8541879791       10.4780111492  MEMB      9               0.0000000000
      1650        37  DOPC      H3R             6.8202332143       14.8887224399       10.1061651429  MEMB      9               0.0000000000
      1651        37  DOPC      H3S             6.0163767250       13.5704666508       10.9509337687  MEMB      9               0.0000000000
      1652        37  DOPC      C24             7.1603811549       12.7877596869        9.4046230664  MEMB      9               0.0000000000
      1653        37  DOPC      H4R             6.6739898318       11.8162374491        9.6367621889  MEMB      9               0.0000000000
      1654        37  DOPC      H4S             8.2455858038       12.5566945527        9.4617257453  MEMB      9               0.0000000000
      1655        37  DOPC      C25             6.7017712960       13.2195340080        8.0046707930  MEMB      9               0.0000000000
      1656        37  DOPC      H5R             5.6456702660       13.5394323182        7.8756874647  MEMB      9               0.0000000000
      1657        37  DOPC      H5S             6.9146922500       12.3745317290        7.3154996455  MEMB      9               0.0000000000
      1658        37  DOPC      C26             7.6345118419       14.3184516449        7.4206212105  MEMB      9               0.0000000000
      1659        37  DOPC      H6R             8.6650835476       14.0830713819        7.7624384539  MEMB      9               0.0000000000
      1660        37  DOPC      H6S             7.3726942900       15.3160311271        7.8336678042  MEMB      9               0.0000000000
      1661        37  DOPC      C27             7.5624876167       14.5754309752        5.9034286110  MEMB      9               0.0000000000
      1662        37  DOPC      H7R             8.1486084969       15.5122166082        5.7884671782  MEMB      9               0.0000000000
      1663        37  DOPC      H7S             6.5684462302       14.9363711457        5.5629511434  MEMB      9               0.0000000000
      1664        37  DOPC      C28             8.0821077991       13.4062158589        4.9409301621  MEMB      9               0.0000000000
      1665        37  DOPC      H8R             9.0298606519       13.1331293640        5.4523097108  MEMB      9               0.0000000000
      1666        37  DOPC      H8S             8.4532918908       13.7988894211        3.9701817569  MEMB      9               0.0000000000
      1667        37  DOPC      C29             7.2405443107       12.2190259631        4.4485355816  MEMB      9               0.0000000000
      1668        37  DOPC      H9R             6.5208414622       11.7935105929        5.1633537740  MEMB      9               0.0000000000
      1669        37  DOPC      C210            7.3493980793       11.5602979232        3.2330937958  MEMB      9               0.0000000000
      1670        37  DOPC      H10R            6.5544332485       10.8149830973        3.0829708667  MEMB      9               0.0000000000
      1671        37  DOPC      C211            8.3412025108       11.9763312317        2.1574935382  MEMB      9               0.0000000000
      1672        37  DOPC      H11R            8.8191390261       12.9724688814        2.2741458767  MEMB      9               0.0000000000
      1673        37  DOPC      H11S            7.7812249335       12.1616528577        1.2160038617  MEMB      9               0.0000000000
      1674        37  DOPC      C212            9.2493853763       10.8465259655        1.7291065546  MEMB      9               0.0000000000
      1675        37  DOPC      H12R            9.8356363872       11.1388754707        0.8317976322  MEMB      9               0.0000000000
      1676        37  DOPC      H12S            8.7227589175        9.9356504933        1.3723275896  MEMB      9               0.0000000000
      1677        37  DOPC      C213           10.2534485376       10.4369578117        2.8322660620  MEMB      9               0.0000000000
      1678        37  DOPC      H13R           11.0021884790        9.7505137606        2.3822610571  MEMB      9               0.0000000000
      1679        37  DOPC      H13S            9.7905008453        9.8449070476        3.6504813475  MEMB      9               0.0000000000
      1680        37  DOPC      C214           11.0687878185       11.5953381589        3.5329148550  MEMB      9               0.0000000000
      1681        37  DOPC      H14R           11.7950986640       11.1362171683        4.2371887617  MEMB      9               0.0000000000
      1682        37  DOPC      H14S           10.4233108223       12.3537249768        4.0253882663  MEMB      9               0.0000000000
      1683        37  DOPC      C215           11.9798421830       12.4293346288        2.5707099111  MEMB      9               0.0000000000
      1684        37  DOPC      H15R           11.4310911723       12.8441161263        1.6982699582  MEMB      9               0.0000000000
      1685        37  DOPC      H15S           12.7784646535       11.7696700484        2.1690058117  MEMB      9               0.0000000000
      1686        37  DOPC      C216           12.6039882419       13.5435131136        3.2759311817  MEMB      9               0.0000000000
      1687        37  DOPC      H16R           13.2113518191       13.2453261914        4.1571319619  MEMB      9               0.0000000000
      1688        37  DOPC      H16S           11.7740300253       14.2138926103        3.5859017505  MEMB      9               0.0000000000
      1689        37  DOPC      C217           13.5573403721       14.3733069234        2.3821667957  MEMB      9               0.0000000000
      1690        37  DOPC      H17R           12.9986132241       14.8636743559        1.5565238423  MEMB      9               0.0000000000
      1691        37  DOPC      H17S           14.2738564104       13.6951854950        1.8712097149  MEMB      9               0.0000000000
      1692        37  DOPC      C218           14.2970495165       15.5020287481        3.0740506991  MEMB      9               0.0000000000
      1693        37  DOPC      H18R           13.7009289574       15.6644131075        3.9974102195  MEMB      9               0.0000000000
      1694        37  DOPC      H18S           14.4871586835       16.3486467774        2.3802073746  MEMB      9               0.0000000000
      1695        37  DOPC      H18T           15.3212196438       15.1694934114        3.3475765136  MEMB      9               0.0000000000
      1696        37  DOPC      C33            12.3675462039       15.6171108735       12.3936821960  MEMB      9               0.0000000000
      1697        37  DOPC      H3X            11.5690303931       14.9180458364       12.0650461152  MEMB      9               0.0000000000
      1698        37  DOPC      H3Y            13.2881229301       15.0085882332       12.5223662172  MEMB      9               0.0000000000
      1699        37  DOPC      C34            12.4069543820       16.6285660785       11.1806785781  MEMB      9               0.0000000000
      1700        37  DOPC      H4X            13.0244978067       17.4973440410       11.4940247531  MEMB      9               0.0000000000
      1701        37  DOPC      H4Y            11.3958493028       17.0798178519       11.0892485664  MEMB      9               0.0000000000
      1702        37  DOPC      C35            12.7479923031       15.9036482866        9.9096899696  MEMB      9               0.0000000000
      1703        37  DOPC      H5X            11.9563750455       15.1785369079        9.6235492126  MEMB      9               0.0000000000
      1704        37  DOPC      H5Y            13.6717249842       15.2939804176       10.0063546355  MEMB      9               0.0000000000
      1705        37  DOPC      C36            12.8167438438       16.9742865184        8.7468407374  MEMB      9               0.0000000000
      1706        37  DOPC      H6X            11.8096094826       17.4416983702        8.7859232234  MEMB      9               0.0000000000
      1707        37  DOPC      H6Y            13.5561297686       17.7899496892        8.8962514665  MEMB      9               0.0000000000
      1708        37  DOPC      C37            13.1541293596       16.4898376728        7.3818508818  MEMB      9               0.0000000000
      1709        37  DOPC      H7X            13.5545600008       17.3324567230        6.7785513888  MEMB      9               0.0000000000
      1710        37  DOPC      H7Y            14.0751349157       15.8793983375        7.4977536035  MEMB      9               0.0000000000
      1711        37  DOPC      C38            11.9787526801       15.8608586145        6.6014542707  MEMB      9               0.0000000000
      1712        37  DOPC      H8X            11.6653457871       14.8833265093        7.0263405485  MEMB      9               0.0000000000
      1713        37  DOPC      H8Y            12.3174690110       15.5465920294        5.5910935362  MEMB      9               0.0000000000
      1714        37  DOPC      C39            10.7749790561       16.8100134201        6.4495104871  MEMB      9               0.0000000000
      1715        37  DOPC      H9X            10.0733772995       16.6147550278        7.2739069154  MEMB      9               0.0000000000
      1716        37  DOPC      C310           10.5908342791       17.8028370483        5.5309541183  MEMB      9               0.0000000000
      1717        37  DOPC      H10X            9.6595137368       18.3881850469        5.5277749280  MEMB      9               0.0000000000
      1718        37  DOPC      C311           11.4796713929       18.2687293790        4.4441547827  MEMB      9               0.0000000000
      1719        37  DOPC      H11X           12.4845926945       17.7990582558        4.5063096059  MEMB      9               0.0000000000
      1720        37  DOPC      H11Y           11.7436915799       19.3168638346        4.7011151781  MEMB      9               0.0000000000
      1721        37  DOPC      C312           10.8094400309       18.2853011716        3.0726071043  MEMB      9               0.0000000000
      1722        37  DOPC      H12X           11.4570731668       18.8534065469        2.3710725825  MEMB      9               0.0000000000
      1723        37  DOPC      H12Y            9.7998283865       18.7477757595        3.1061173355  MEMB      9               0.0000000000
      1724        37  DOPC      C313           10.5057067233       16.8521308198        2.5912409082  MEMB      9               0.0000000000
      1725        37  DOPC      H13X           11.4803281586       16.3245794817        2.5129875204  MEMB      9               0.0000000000
      1726        37  DOPC      H13Y            9.9320468660       16.3802676560        3.4174258260  MEMB      9               0.0000000000
      1727        37  DOPC      C314            9.9138603813       16.6718707399        1.1558360593  MEMB      9               0.0000000000
      1728        37  DOPC      H14X           10.7534481112       16.9553375561        0.4857160682  MEMB      9               0.0000000000
      1729        37  DOPC      H14Y            9.7610433888       15.5927016578        0.9405170861  MEMB      9               0.0000000000
      1730        37  DOPC      C315            8.6202588059       17.5165747398        0.9240241340  MEMB      9               0.0000000000
      1731        37  DOPC      H15X            8.7482161595       18.6191037607        0.8752627479  MEMB      9               0.0000000000
      1732        37  DOPC      H15Y            7.8567730944       17.2898377247        1.6986213644  MEMB      9               0.0000000000
      1733        37  DOPC      C316            7.8810730743       17.4433078415       -0.4507192548  MEMB      9               0.0000000000
      1734        37  DOPC      H16X            7.1323149697       18.2585587515       -0.5458388717  MEMB      9               0.0000000000
      1735        37  DOPC      H16Y            8.5869087049       17.6689291097       -1.2784942798  MEMB      9               0.0000000000
      1736        37  DOPC      C317            7.1813945338       16.1293998850       -0.6575446281  MEMB      9               0.0000000000
      1737        37  DOPC      H17X            6.7987139333       15.7226861050        0.3029042964  MEMB      9               0.0000000000
      1738        37  DOPC      H17Y            6.3356927063       16.2227742948       -1.3719600430  MEMB      9               0.0000000000
      1739        37  DOPC      C318            8.1180282256       15.0817483581       -1.3435128336  MEMB      9               0.0000000000
      1740        37  DOPC      H18X            8.8709840576       14.5713008146       -0.7056873125  MEMB      9               0.0000000000
      1741        37  DOPC      H18Y            7.4294737522       14.2834593566       -1.6941534968  MEMB      9               0.0000000000
      1742        37  DOPC      H18Z            8.5618361942       15.6021426966       -2.2190385765  MEMB      9               0.0000000000
      1743        38  DOPC      N              -4.2722248959       16.7529381017       18.6275144545  MEMB      10              0.0000000000
      1744        38  DOPC      C12            -5.1858719942       16.3868983980       19.7501362250  MEMB      10              0.0000000000
      1745        38  DOPC      H12A           -4.7236806530       16.5048475056       20.7190877540  MEMB      10              0.0000000000
      1746        38  DOPC      H12B           -5.3514835502       15.3196768059       19.7468054410  MEMB      10              0.0000000000
      1747        38  DOPC      C13            -3.0289589177       16.0368054191       19.0372240625  MEMB      10              0.0000000000
      1748        38  DOPC      H13A           -2.0867384495       16.4531312172       18.7127344701  MEMB      10              0.0000000000
      1749        38  DOPC      H13B           -3.0233805354       15.9723628781       20.1152852825  MEMB      10              0.0000000000
      1750        38  DOPC      H13C           -3.1995135061       15.1009531313       18.5258613569  MEMB      10              0.0000000000
      1751        38  DOPC      C14            -3.9951395639       18.2051487978       18.6181055651  MEMB      10              0.0000000000
      1752        38  DOPC      H14A           -3.3915082491       18.4096300699       17.7462014591  MEMB      10              0.0000000000
      1753        38  DOPC      H14B           -4.9265570849       18.7518134593       18.6137416536  MEMB      10              0.0000000000
      1754        38  DOPC      H14C           -3.5398751902       18.4801673113       19.5580519907  MEMB      10              0.0000000000
      1755        38  DOPC      C15            -4.7447775757       16.2601715630       17.3605122658  MEMB      10              0.0000000000
      1756        38  DOPC      H15A           -5.5782762440       16.8281444450       16.9743944231  MEMB      10              0.0000000000
      1757        38  DOPC      H15B           -5.1688719330       15.2913904821       17.5796175188  MEMB      10              0.0000000000
      1758        38  DOPC      H15C           -3.9289071601       16.1330590612       16.6643817279  MEMB      10              0.0000000000
      1759        38  DOPC      C11            -6.6410259915       16.9715088136       19.8120792220  MEMB      10              0.0000000000
      1760        38  DOPC      H11A           -7.2441464472       16.6757481615       18.9271541354  MEMB      10              0.0000000000
      1761        38  DOPC      H11B           -7.0283136849       16.5998846125       20.7848200707  MEMB      10              0.0000000000
      1762        38  DOPC      P              -7.7637138767       19.3043024756       19.2091370322  MEMB      10              0.0000000000
      1763        38  DOPC      O13            -7.4567169557       20.7490127137       19.4519973464  MEMB      10              0.0000000000
      1764        38  DOPC      O14            -9.0227320627       18.7786598452       19.6711762282  MEMB      10              0.0000000000
      1765        38  DOPC      O12            -6.6204898328       18.4092941798       19.7947240883  MEMB      10              0.0000000000
      1766        38  DOPC      O11            -7.6948897730       19.1337866386       17.6673935145  MEMB      10              0.0000000000
      1767        38  DOPC      C1             -6.7371836353       19.6637136827       16.7743756135  MEMB      10              0.0000000000
      1768        38  DOPC      HA             -5.9464821981       18.9130247683       16.5608846174  MEMB      10              0.0000000000
      1769        38  DOPC      HB             -6.2371872544       20.5237439857       17.2690191955  MEMB      10              0.0000000000
      1770        38  DOPC      C2             -7.2909975412       20.1628285785       15.4014484756  MEMB      10              0.0000000000
      1771        38  DOPC      HS             -7.8051755597       21.1252382680       15.6105168219  MEMB      10              0.0000000000
      1772        38  DOPC      O21            -8.0738172473       19.1008434881       14.8480782932  MEMB      10              0.0000000000
      1773        38  DOPC      C21            -9.2614826566       19.3657779419       14.3561554449  MEMB      10              0.0000000000
      1774        38  DOPC      O22            -9.8585000914       20.3980330621       14.3911259477  MEMB      10              0.0000000000
      1775        38  DOPC      C22            -9.8107208619       18.0389496026       13.8412697200  MEMB      10              0.0000000000
      1776        38  DOPC      H2R           -10.5574611708       17.6433766102       14.5625340535  MEMB      10              0.0000000000
      1777        38  DOPC      H2S            -9.0653384495       17.2246277801       13.7163454826  MEMB      10              0.0000000000
      1778        38  DOPC      C3             -6.1697743676       20.5422681265       14.3264094178  MEMB      10              0.0000000000
      1779        38  DOPC      HX             -5.4713776076       21.3384595458       14.6620317161  MEMB      10              0.0000000000
      1780        38  DOPC      HY             -6.6417861734       20.8803784428       13.3791989458  MEMB      10              0.0000000000
      1781        38  DOPC      O31            -5.4913162923       19.3365867206       14.0449908287  MEMB      10              0.0000000000
      1782        38  DOPC      C31            -4.2847914777       19.0825389697       14.5102232342  MEMB      10              0.0000000000
      1783        38  DOPC      O32            -3.7590204674       19.7515638008       15.4132427418  MEMB      10              0.0000000000
      1784        38  DOPC      C32            -3.5901540933       17.9943851208       13.5885336822  MEMB      10              0.0000000000
      1785        38  DOPC      H2X            -3.5103324349       17.1140305518       14.2615306325  MEMB      10              0.0000000000
      1786        38  DOPC      H2Y            -4.1318206471       17.8089080277       12.6364220439  MEMB      10              0.0000000000
      1787        38  DOPC      C23           -10.6457882814       18.1424790206       12.5411081268  MEMB      10              0.0000000000
      1788        38  DOPC      H3R           -11.4869471363       18.8593614293       12.6544785469  MEMB      10              0.0000000000
      1789        38  DOPC      H3S           -11.0935036575       17.1861298414       12.1957559073  MEMB      10              0.0000000000
      1790        38  DOPC      C24            -9.8498326915       18.6774626466       11.3470360014  MEMB      10              0.0000000000
      1791        38  DOPC      H4R            -9.8797757527       19.7701761102       11.5455346653  MEMB      10              0.0000000000
      1792        38  DOPC      H4S           -10.3394343718       18.5004341721       10.3655717735  MEMB      10              0.0000000000
      1793        38  DOPC      C25            -8.3813315588       18.1858557905       11.2161816475  MEMB      10              0.0000000000
      1794        38  DOPC      H5R            -7.7033842009       18.1806919569       12.0963410143  MEMB      10              0.0000000000
      1795        38  DOPC      H5S            -7.8977668428       18.8318126727       10.4524885589  MEMB      10              0.0000000000
      1796        38  DOPC      C26            -8.4180932216       16.6750672967       10.7749065300  MEMB      10              0.0000000000
      1797        38  DOPC      H6R            -9.2258778191       16.4737923440       10.0391800727  MEMB      10              0.0000000000
      1798        38  DOPC      H6S            -8.6878355343       16.0574655649       11.6581549003  MEMB      10              0.0000000000
      1799        38  DOPC      C27            -7.0766546365       16.1178195889       10.2713522866  MEMB      10              0.0000000000
      1800        38  DOPC      H7R            -7.2778074363       15.0380687611       10.1040304190  MEMB      10              0.0000000000
      1801        38  DOPC      H7S            -6.3883459285       16.2978705856       11.1246602335  MEMB      10              0.0000000000
      1802        38  DOPC      C28            -6.4797277581       16.9443991431        9.1281914763  MEMB      10              0.0000000000
      1803        38  DOPC      H8R            -6.1797534948       17.9320809814        9.5390690512  MEMB      10              0.0000000000
      1804        38  DOPC      H8S            -7.2330193525       16.9059326431        8.3124745266  MEMB      10              0.0000000000
      1805        38  DOPC      C29            -5.2833587907       16.2714104309        8.5802671450  MEMB      10              0.0000000000
      1806        38  DOPC      H9R            -4.7125091379       15.6436039287        9.2802601445  MEMB      10              0.0000000000
      1807        38  DOPC      C210           -4.9305970655       16.0783013722        7.2562991597  MEMB      10              0.0000000000
      1808        38  DOPC      H10R           -4.0435725105       15.4841354541        6.9914331140  MEMB      10              0.0000000000
      1809        38  DOPC      C211           -5.6792494841       16.5421747521        6.0507915434  MEMB      10              0.0000000000
      1810        38  DOPC      H11R           -6.7272904371       16.7713825695        6.3395729965  MEMB      10              0.0000000000
      1811        38  DOPC      H11S           -5.8447748330       15.6736837345        5.3780021001  MEMB      10              0.0000000000
      1812        38  DOPC      C212           -5.1346044359       17.7828312299        5.3688094290  MEMB      10              0.0000000000
      1813        38  DOPC      H12R           -4.1247344138       17.5911179228        4.9472300818  MEMB      10              0.0000000000
      1814        38  DOPC      H12S           -5.2100048909       18.6523718841        6.0562216564  MEMB      10              0.0000000000
      1815        38  DOPC      C213           -5.9807397674       18.1978716734        4.0961661904  MEMB      10              0.0000000000
      1816        38  DOPC      H13R           -5.4822425044       19.0727104432        3.6266153850  MEMB      10              0.0000000000
      1817        38  DOPC      H13S           -6.9657727975       18.5374392095        4.4818145803  MEMB      10              0.0000000000
      1818        38  DOPC      C214           -6.2884813565       16.9434505147        3.1337997854  MEMB      10              0.0000000000
      1819        38  DOPC      H14R           -6.9938175987       16.2641319365        3.6585359935  MEMB      10              0.0000000000
      1820        38  DOPC      H14S           -5.2883761953       16.5089042081        2.9210101074  MEMB      10              0.0000000000
      1821        38  DOPC      C215           -6.8020034767       17.3579592781        1.7422071910  MEMB      10              0.0000000000
      1822        38  DOPC      H15R           -7.7050366437       17.9384695644        2.0283188179  MEMB      10              0.0000000000
      1823        38  DOPC      H15S           -7.1210518378       16.4803662392        1.1402449109  MEMB      10              0.0000000000
      1824        38  DOPC      C216           -5.8539502832       18.1825862178        0.7807100441  MEMB      10              0.0000000000
      1825        38  DOPC      H16R           -5.0932297401       17.4999275662        0.3452752249  MEMB      10              0.0000000000
      1826        38  DOPC      H16S           -5.3519038738       18.9110447300        1.4527344304  MEMB      10              0.0000000000
      1827        38  DOPC      C217           -6.7254933064       18.9688795339       -0.3104808538  MEMB      10              0.0000000000
      1828        38  DOPC      H17R           -6.5843893572       20.0708183963       -0.2985950744  MEMB      10              0.0000000000
      1829        38  DOPC      H17S           -7.7748039940       18.7994533406        0.0128821467  MEMB      10              0.0000000000
      1830        38  DOPC      C218           -6.2800543729       18.3632389443       -1.6557809031  MEMB      10              0.0000000000
      1831        38  DOPC      H18R           -7.0712652883       18.7021396681       -2.3582423163  MEMB      10              0.0000000000
      1832        38  DOPC      H18S           -6.2559720258       17.2606514697       -1.7901004584  MEMB      10              0.0000000000
      1833        38  DOPC      H18T           -5.2774213389       18.7546153663       -1.9312304762  MEMB      10              0.0000000000
      1834        38  DOPC      C33            -2.1417432808       18.3721556292       13.3399067925  MEMB      10              0.0000000000
      1835        38  DOPC      H3X            -1.5801062301       17.6738685743       12.6831878529  MEMB      10              0.0000000000
      1836        38  DOPC      H3Y            -1.6066908440       18.3886287013       14.3134407925  MEMB      10              0.0000000000
      1837        38  DOPC      C34            -1.9782785849       19.7356266238       12.5852925773  MEMB      10              0.0000000000
      1838        38  DOPC      H4X            -0.8911006551       19.9300477988       12.4646043851  MEMB      10              0.0000000000
      1839        38  DOPC      H4Y            -2.3324752549       20.4658282847       13.3440227515  MEMB      10              0.0000000000
      1840        38  DOPC      C35            -2.6710580876       19.7554055434       11.1979172205  MEMB      10              0.0000000000
      1841        38  DOPC      H5X            -3.7380486352       19.4824098553       11.3439513100  MEMB      10              0.0000000000
      1842        38  DOPC      H5Y            -2.3420922064       18.8375107644       10.6654031117  MEMB      10              0.0000000000
      1843        38  DOPC      C36            -2.5769370675       21.1262430541       10.4449911177  MEMB      10              0.0000000000
      1844        38  DOPC      H6X            -1.5283763393       21.4934500852       10.4452685393  MEMB      10              0.0000000000
      1845        38  DOPC      H6Y            -2.8367018050       20.9839599326        9.3741976862  MEMB      10              0.0000000000
      1846        38  DOPC      C37            -3.3438611904       22.2799231748       11.1486942033  MEMB      10              0.0000000000
      1847        38  DOPC      H7X            -3.2901317763       22.1378110486       12.2492571829  MEMB      10              0.0000000000
      1848        38  DOPC      H7Y            -2.9520081081       23.2456927156       10.7639065975  MEMB      10              0.0000000000
      1849        38  DOPC      C38            -4.8608650043       22.2305693085       10.6811674016  MEMB      10              0.0000000000
      1850        38  DOPC      H8X            -5.3031890314       21.2348839127       10.8986098015  MEMB      10              0.0000000000
      1851        38  DOPC      H8Y            -4.7827735656       22.0808781041        9.5830709833  MEMB      10              0.0000000000
      1852        38  DOPC      C39            -5.7898021139       23.3231016479       11.1384114138  MEMB      10              0.0000000000
      1853        38  DOPC      H9X            -5.8342547205       23.4168279174       12.2335094618  MEMB      10              0.0000000000
      1854        38  DOPC      C310           -6.6201361631       23.9747980376       10.3250193946  MEMB      10              0.0000000000
      1855        38  DOPC      H10X           -7.1450813871       24.8293361634       10.7769005360  MEMB      10              0.0000000000
      1856        38  DOPC      C311           -6.7433451331       23.6896709973        8.8713707459  MEMB      10              0.0000000000
      1857        38  DOPC      H11X           -6.3176508079       22.7192751900        8.5375492953  MEMB      10              0.0000000000
      1858        38  DOPC      H11Y           -6.2398226151       24.4583950670        8.2469918089  MEMB      10              0.0000000000
      1859        38  DOPC      C312           -8.2890960082       23.7336711244        8.5308440132  MEMB      10              0.0000000000
      1860        38  DOPC      H12X           -8.7052091541       24.6931625204        8.9057399848  MEMB      10              0.0000000000
      1861        38  DOPC      H12Y           -8.8485487745       22.9042641273        9.0139766108  MEMB      10              0.0000000000
      1862        38  DOPC      C313           -8.6433567777       23.6691510102        7.0331023774  MEMB      10              0.0000000000
      1863        38  DOPC      H13X           -9.7229598443       23.4278292473        6.9304264816  MEMB      10              0.0000000000
      1864        38  DOPC      H13Y           -8.3596365244       24.6194381166        6.5323240368  MEMB      10              0.0000000000
      1865        38  DOPC      C314           -7.9856037395       22.5739227011        6.2044649860  MEMB      10              0.0000000000
      1866        38  DOPC      H14X           -6.8952185115       22.7546113727        6.0916259708  MEMB      10              0.0000000000
      1867        38  DOPC      H14Y           -8.0257614138       21.5284755506        6.5782943645  MEMB      10              0.0000000000
      1868        38  DOPC      C315           -8.3829806570       22.5610621982        4.6425558867  MEMB      10              0.0000000000
      1869        38  DOPC      H15X           -7.9682781108       23.4869208049        4.1896449241  MEMB      10              0.0000000000
      1870        38  DOPC      H15Y           -9.4915796236       22.6172756912        4.5959791771  MEMB      10              0.0000000000
      1871        38  DOPC      C316           -7.8915297055       21.2737824892        3.9951459597  MEMB      10              0.0000000000
      1872        38  DOPC      H16X           -6.7872649046       21.3207076122        4.1079207921  MEMB      10              0.0000000000
      1873        38  DOPC      H16Y           -8.2885106621       20.4337931227        4.6043620439  MEMB      10              0.0000000000
      1874        38  DOPC      C317           -8.3323023072       21.2456990057        2.5598867019  MEMB      10              0.0000000000
      1875        38  DOPC      H17X           -8.2121035962       22.1931527400        1.9922554876  MEMB      10              0.0000000000
      1876        38  DOPC      H17Y           -7.7614400354       20.4395240583        2.0514390267  MEMB      10              0.0000000000
      1877        38  DOPC      C318           -9.8062073962       20.8728766661        2.3763343965  MEMB      10              0.0000000000
      1878        38  DOPC      H18X          -10.4897738174       21.3266637821        3.1254230563  MEMB      10              0.0000000000
      1879        38  DOPC      H18Y          -10.1047082309       21.1071054633        1.3321328694  MEMB      10              0.0000000000
      1880        38  DOPC      H18Z           -9.6953665595       19.7979369064        2.6342859975  MEMB      10              0.0000000000
      1881        39  DOPC      N               3.0384832771      -21.0022099316       19.7616617885  MEMB      11              0.0000000000
      1882        39  DOPC      C12             1.5424407604      -20.9574298486       19.7662032899  MEMB      11              0.0000000000
      1883        39  DOPC      H12A            1.1660464498      -20.8217544522       20.7693580335  MEMB      11              0.0000000000
      1884        39  DOPC      H12B            1.1498177423      -21.8871236031       19.3816035170  MEMB      11              0.0000000000
      1885        39  DOPC      C13             3.7454972678      -19.7317117393       20.2957759815  MEMB      11              0.0000000000
      1886        39  DOPC      H13A            3.5793025684      -18.9051809324       19.6207750983  MEMB      11              0.0000000000
      1887        39  DOPC      H13B            3.2427739184      -19.3593816137       21.1761391261  MEMB      11              0.0000000000
      1888        39  DOPC      H13C            4.7792788211      -19.9535686199       20.5159471402  MEMB      11              0.0000000000
      1889        39  DOPC      C14             3.5708020152      -21.3241283661       18.3805521198  MEMB      11              0.0000000000
      1890        39  DOPC      H14A            4.6475925603      -21.2930315836       18.4577216902  MEMB      11              0.0000000000
      1891        39  DOPC      H14B            3.1953340687      -22.2969247046       18.0993205317  MEMB      11              0.0000000000
      1892        39  DOPC      H14C            3.2779867865      -20.5432999104       17.6942823487  MEMB      11              0.0000000000
      1893        39  DOPC      C15             3.5445686857      -22.1019771963       20.7039708919  MEMB      11              0.0000000000
      1894        39  DOPC      H15A            4.6202584134      -22.1617586107       20.7795856014  MEMB      11              0.0000000000
      1895        39  DOPC      H15B            3.0895936646      -23.0146942370       20.3485202199  MEMB      11              0.0000000000
      1896        39  DOPC      H15C            3.1112455993      -21.9179027546       21.6759521705  MEMB      11              0.0000000000
      1897        39  DOPC      C11             0.8166938480      -19.8901105814       18.8976784306  MEMB      11              0.0000000000
      1898        39  DOPC      H11A            0.9694194527      -20.1109846535       17.8196197832  MEMB      11              0.0000000000
      1899        39  DOPC      H11B           -0.2926281894      -19.8380615637       18.9295598782  MEMB      11              0.0000000000
      1900        39  DOPC      P               0.9685427830      -17.4241109599       18.1941388444  MEMB      11              0.0000000000
      1901        39  DOPC      O13             1.8361346331      -17.5952413134       16.9512354495  MEMB      11              0.0000000000
      1902        39  DOPC      O14             1.0141593488      -16.2125514332       19.0322959568  MEMB      11              0.0000000000
      1903        39  DOPC      O12             1.4230386147      -18.6506055137       19.1706943490  MEMB      11              0.0000000000
      1904        39  DOPC      O11            -0.5542875177      -17.6571140171       17.8457928982  MEMB      11              0.0000000000
      1905        39  DOPC      C1             -1.2579113354      -16.8584733103       16.9296075300  MEMB      11              0.0000000000
      1906        39  DOPC      HA             -0.7076976452      -16.0787164985       16.3607797236  MEMB      11              0.0000000000
      1907        39  DOPC      HB             -1.9908316239      -16.2564706053       17.5081760130  MEMB      11              0.0000000000
      1908        39  DOPC      C2             -1.9476633082      -17.7814256668       15.8872419003  MEMB      11              0.0000000000
      1909        39  DOPC      HS             -2.6905287555      -18.3275170652       16.5071259275  MEMB      11              0.0000000000
      1910        39  DOPC      O21            -0.9655720850      -18.6856118290       15.3079257033  MEMB      11              0.0000000000
      1911        39  DOPC      C21            -1.2795221906      -19.9574469962       15.3664187736  MEMB      11              0.0000000000
      1912        39  DOPC      O22            -2.4186593832      -20.4188006694       15.5432756096  MEMB      11              0.0000000000
      1913        39  DOPC      C22            -0.0310846311      -20.8161336483       14.8996149052  MEMB      11              0.0000000000
      1914        39  DOPC      H2R             0.1443248017      -21.5957874728       15.6714262311  MEMB      11              0.0000000000
      1915        39  DOPC      H2S             0.8779650294      -20.1858189246       14.7964019606  MEMB      11              0.0000000000
      1916        39  DOPC      C3             -2.6009575247      -16.8975670240       14.7907754369  MEMB      11              0.0000000000
      1917        39  DOPC      HX             -3.3030193759      -16.1708695979       15.2526635796  MEMB      11              0.0000000000
      1918        39  DOPC      HY             -3.1218023416      -17.5168630236       14.0295173378  MEMB      11              0.0000000000
      1919        39  DOPC      O31            -1.5690965304      -16.1259026141       14.1766553903  MEMB      11              0.0000000000
      1920        39  DOPC      C31            -1.0394287129      -16.6202516635       13.0487541804  MEMB      11              0.0000000000
      1921        39  DOPC      O32            -1.3516008894      -17.5512803152       12.2943338428  MEMB      11              0.0000000000
      1922        39  DOPC      C32             0.2450994938      -15.8343631819       12.8053425648  MEMB      11              0.0000000000
      1923        39  DOPC      H2X            -0.0037411424      -14.9382725289       12.1975427379  MEMB      11              0.0000000000
      1924        39  DOPC      H2Y             0.6720178643      -15.3928131750       13.7311369781  MEMB      11              0.0000000000
      1925        39  DOPC      C23            -0.5588951688      -21.6141846420       13.7350150075  MEMB      11              0.0000000000
      1926        39  DOPC      H3R            -1.3661999415      -22.2921668759       14.0856143190  MEMB      11              0.0000000000
      1927        39  DOPC      H3S             0.2564997312      -22.2718843478       13.3650375992  MEMB      11              0.0000000000
      1928        39  DOPC      C24            -0.9688386690      -20.8434566056       12.4802005673  MEMB      11              0.0000000000
      1929        39  DOPC      H4R            -0.4218489095      -19.8770438706       12.4460006382  MEMB      11              0.0000000000
      1930        39  DOPC      H4S            -2.0295137852      -20.5710203155       12.6674640060  MEMB      11              0.0000000000
      1931        39  DOPC      C25            -0.6579038966      -21.6381843053       11.1308756400  MEMB      11              0.0000000000
      1932        39  DOPC      H5R            -1.2877578255      -22.5493432828       11.2168683652  MEMB      11              0.0000000000
      1933        39  DOPC      H5S             0.4386714624      -21.8075164623       11.0745713456  MEMB      11              0.0000000000
      1934        39  DOPC      C26            -0.9999992668      -20.8021159764        9.9049045473  MEMB      11              0.0000000000
      1935        39  DOPC      H6R            -0.2509909323      -21.0062797359        9.1101559634  MEMB      11              0.0000000000
      1936        39  DOPC      H6S            -0.9229804568      -19.7142814182       10.1170476229  MEMB      11              0.0000000000
      1937        39  DOPC      C27            -2.3349941737      -21.2210835798        9.3729543588  MEMB      11              0.0000000000
      1938        39  DOPC      H7R            -3.0824490329      -21.0906716634       10.1845117879  MEMB      11              0.0000000000
      1939        39  DOPC      H7S            -2.2281347126      -22.2728456554        9.0313424883  MEMB      11              0.0000000000
      1940        39  DOPC      C28            -2.6931762182      -20.3512689832        8.1179088421  MEMB      11              0.0000000000
      1941        39  DOPC      H8R            -3.6974545873      -20.7525303378        7.8634780275  MEMB      11              0.0000000000
      1942        39  DOPC      H8S            -2.0512123292      -20.6239690973        7.2531324084  MEMB      11              0.0000000000
      1943        39  DOPC      C29            -2.6859404825      -18.9056521417        8.4424731142  MEMB      11              0.0000000000
      1944        39  DOPC      H9R            -3.5426406498      -18.6166563398        9.0690076974  MEMB      11              0.0000000000
      1945        39  DOPC      C210           -1.8118034275      -17.9253760905        8.1936176507  MEMB      11              0.0000000000
      1946        39  DOPC      H10R           -1.9819466114      -16.9181825026        8.6017996384  MEMB      11              0.0000000000
      1947        39  DOPC      C211           -0.4728400727      -18.1314869314        7.5321119852  MEMB      11              0.0000000000
      1948        39  DOPC      H11R           -0.2750976822      -19.1817399553        7.2284882355  MEMB      11              0.0000000000
      1949        39  DOPC      H11S            0.3011180891      -17.7826038157        8.2487639241  MEMB      11              0.0000000000
      1950        39  DOPC      C212           -0.2038106484      -17.2975033018        6.2984361769  MEMB      11              0.0000000000
      1951        39  DOPC      H12R            0.8141051367      -17.4551433773        5.8821220474  MEMB      11              0.0000000000
      1952        39  DOPC      H12S           -0.3416049938      -16.2110631555        6.4854695604  MEMB      11              0.0000000000
      1953        39  DOPC      C213           -1.1699789604      -17.5714618164        5.1209932059  MEMB      11              0.0000000000
      1954        39  DOPC      H13R           -2.1818379460      -17.1482240540        5.2980022281  MEMB      11              0.0000000000
      1955        39  DOPC      H13S           -1.2884423224      -18.6760848593        5.1112372946  MEMB      11              0.0000000000
      1956        39  DOPC      C214           -0.6825970928      -17.0970998611        3.7489958000  MEMB      11              0.0000000000
      1957        39  DOPC      H14R           -1.0066642528      -17.9023823975        3.0555826541  MEMB      11              0.0000000000
      1958        39  DOPC      H14S            0.4117459233      -17.1390285017        3.5619763143  MEMB      11              0.0000000000
      1959        39  DOPC      C215           -1.2578816105      -15.8054047363        3.1577866841  MEMB      11              0.0000000000
      1960        39  DOPC      H15R           -2.3563325972      -15.7475465459        3.3139237571  MEMB      11              0.0000000000
      1961        39  DOPC      H15S           -1.1078817085      -15.8634539323        2.0584913415  MEMB      11              0.0000000000
      1962        39  DOPC      C216           -0.6711749597      -14.5450313109        3.8314488889  MEMB      11              0.0000000000
      1963        39  DOPC      H16R           -0.8801017078      -14.5819462182        4.9220029558  MEMB      11              0.0000000000
      1964        39  DOPC      H16S           -1.3690472427      -13.7613900362        3.4664798716  MEMB      11              0.0000000000
      1965        39  DOPC      C217            0.8103253619      -14.3093441762        3.5932357481  MEMB      11              0.0000000000
      1966        39  DOPC      H17R            1.5212896706      -15.0657356916        3.9891172799  MEMB      11              0.0000000000
      1967        39  DOPC      H17S            1.1264789262      -13.3798549366        4.1132524901  MEMB      11              0.0000000000
      1968        39  DOPC      C218            1.2567037004      -14.2040735196        2.0884244802  MEMB      11              0.0000000000
      1969        39  DOPC      H18R            1.1138750306      -13.1670894911        1.7161542049  MEMB      11              0.0000000000
      1970        39  DOPC      H18S            0.6585640244      -14.8842048645        1.4450186856  MEMB      11              0.0000000000
      1971        39  DOPC      H18T            2.3382637661      -14.3876403284        1.9127768309  MEMB      11              0.0000000000
      1972        39  DOPC      C33             1.2666491033      -16.6309310480       12.0872668611  MEMB      11              0.0000000000
      1973        39  DOPC      H3X             0.8061739280      -16.8686279956       11.1045239035  MEMB      11              0.0000000000
      1974        39  DOPC      H3Y             1.5967834703      -17.5000623990       12.6954964279  MEMB      11              0.0000000000
      1975        39  DOPC      C34             2.5405720423      -15.7038972288       11.7756792596  MEMB      11              0.0000000000
      1976        39  DOPC      H4X             2.9085035140      -15.2337444555       12.7126449890  MEMB      11              0.0000000000
      1977        39  DOPC      H4Y             2.2585457586      -14.8079742006       11.1822957955  MEMB      11              0.0000000000
      1978        39  DOPC      C35             3.7968448558      -16.2962374433       11.1267513442  MEMB      11              0.0000000000
      1979        39  DOPC      H5X             4.0584452583      -17.0858907202       11.8631843904  MEMB      11              0.0000000000
      1980        39  DOPC      H5Y             4.6782378934      -15.6204479010       11.1546039851  MEMB      11              0.0000000000
      1981        39  DOPC      C36             3.5522085444      -16.8972896095        9.7421639357  MEMB      11              0.0000000000
      1982        39  DOPC      H6X             4.4708250242      -17.5175903911        9.6667194083  MEMB      11              0.0000000000
      1983        39  DOPC      H6Y             2.7488031512      -17.6592795877        9.8328939558  MEMB      11              0.0000000000
      1984        39  DOPC      C37             3.3755378127      -15.8735049841        8.6155920415  MEMB      11              0.0000000000
      1985        39  DOPC      H7X             2.4454071278      -15.2737794737        8.7130976005  MEMB      11              0.0000000000
      1986        39  DOPC      H7Y             4.1854319674      -15.1129884311        8.6182147432  MEMB      11              0.0000000000
      1987        39  DOPC      C38             3.3776891047      -16.5337705136        7.2110817484  MEMB      11              0.0000000000
      1988        39  DOPC      H8X             2.7993585865      -15.8318566777        6.5729815100  MEMB      11              0.0000000000
      1989        39  DOPC      H8Y             2.8763850382      -17.5122083816        7.3713158673  MEMB      11              0.0000000000
      1990        39  DOPC      C39             4.6929873670      -16.7412477434        6.5060769305  MEMB      11              0.0000000000
      1991        39  DOPC      H9X             5.1988251149      -15.7661698342        6.4481890519  MEMB      11              0.0000000000
      1992        39  DOPC      C310            5.3292688482      -17.8557837011        6.0018083198  MEMB      11              0.0000000000
      1993        39  DOPC      H10X            6.3341130344      -17.7142240619        5.5772502283  MEMB      11              0.0000000000
      1994        39  DOPC      C311            4.7889209309      -19.2712022623        6.1170174776  MEMB      11              0.0000000000
      1995        39  DOPC      H11X            3.8449210398      -19.3595494051        6.6961376479  MEMB      11              0.0000000000
      1996        39  DOPC      H11Y            5.5801563190      -19.8818073696        6.6022272823  MEMB      11              0.0000000000
      1997        39  DOPC      C312            4.4922254939      -19.9313079308        4.7126515033  MEMB      11              0.0000000000
      1998        39  DOPC      H12X            4.1608990490      -20.9505117724        5.0055125546  MEMB      11              0.0000000000
      1999        39  DOPC      H12Y            5.3542918418      -20.0862217982        4.0291574222  MEMB      11              0.0000000000
      2000        39  DOPC      C313            3.4505766803      -19.1907426498        3.8121053799  MEMB      11              0.0000000000
      2001        39  DOPC      H13X            2.5862052796      -18.8283092447        4.4086163194  MEMB      11              0.0000000000
      2002        39  DOPC      H13Y            4.0151588908      -18.2629980176        3.5778885967  MEMB      11              0.0000000000
      2003        39  DOPC      C314            3.1004282233      -19.8973655535        2.5159094669  MEMB      11              0.0000000000
      2004        39  DOPC      H14X            4.0500083912      -20.3245146942        2.1284025873  MEMB      11              0.0000000000
      2005        39  DOPC      H14Y            2.4922988521      -20.8109137602        2.6889106044  MEMB      11              0.0000000000
      2006        39  DOPC      C315            2.3831433086      -19.0454631077        1.5081227905  MEMB      11              0.0000000000
      2007        39  DOPC      H15X            1.6141349143      -18.4397677071        2.0335546080  MEMB      11              0.0000000000
      2008        39  DOPC      H15Y            1.9801579763      -19.6260676431        0.6509035930  MEMB      11              0.0000000000
      2009        39  DOPC      C316            3.2847048092      -18.0232185755        0.8355029741  MEMB      11              0.0000000000
      2010        39  DOPC      H16X            2.6897052855      -17.5209763141        0.0430075872  MEMB      11              0.0000000000
      2011        39  DOPC      H16Y            3.6977485318      -17.2529355973        1.5213452539  MEMB      11              0.0000000000
      2012        39  DOPC      C317            4.5525170175      -18.5584946132        0.1493601911  MEMB      11              0.0000000000
      2013        39  DOPC      H17X            5.2140774938      -18.9704965032        0.9411384157  MEMB      11              0.0000000000
      2014        39  DOPC      H17Y            4.2750715038      -19.2736692160       -0.6543007408  MEMB      11              0.0000000000
      2015        39  DOPC      C318            5.4099948147      -17.4524499404       -0.5556015608  MEMB      11              0.0000000000
      2016        39  DOPC      H18X            4.9015338160      -17.0176553676       -1.4425854965  MEMB      11              0.0000000000
      2017        39  DOPC      H18Y            5.6003826051      -16.5359299225        0.0427833735  MEMB      11              0.0000000000
      2018        39  DOPC      H18Z            6.3092760819      -17.8754936613       -1.0522376205  MEMB      11              0.0000000000
      2019        40  DOPC      N               4.9032178089       20.8662235710       18.5569216458  MEMB      12              0.0000000000
      2020        40  DOPC      C12             3.3699900864       20.6247631661       18.4286059692  MEMB      12              0.0000000000
      2021        40  DOPC      H12A            3.0495965483       21.1994121723       17.5721444057  MEMB      12              0.0000000000
      2022        40  DOPC      H12B            2.9126211629       20.9811619750       19.3397554903  MEMB      12              0.0000000000
      2023        40  DOPC      C13             5.4970339166       20.1040268354       19.6870494627  MEMB      12              0.0000000000
      2024        40  DOPC      H13A            5.0889358465       20.4901363694       20.6094243801  MEMB      12              0.0000000000
      2025        40  DOPC      H13B            5.3047688323       19.0418810496       19.6512666523  MEMB      12              0.0000000000
      2026        40  DOPC      H13C            6.5449516994       20.3649428563       19.7008829105  MEMB      12              0.0000000000
      2027        40  DOPC      C14             5.0664156833       22.2951115168       18.8656077162  MEMB      12              0.0000000000
      2028        40  DOPC      H14A            4.4449811968       22.6581874134       19.6708375152  MEMB      12              0.0000000000
      2029        40  DOPC      H14B            6.0882354565       22.5646446707       19.0883990390  MEMB      12              0.0000000000
      2030        40  DOPC      H14C            4.8177097011       22.9181525857       18.0192241519  MEMB      12              0.0000000000
      2031        40  DOPC      C15             5.7439718833       20.4982570571       17.4066356802  MEMB      12              0.0000000000
      2032        40  DOPC      H15A            5.3934958876       21.0185119685       16.5274875389  MEMB      12              0.0000000000
      2033        40  DOPC      H15B            5.7529904507       19.4380287351       17.2011252687  MEMB      12              0.0000000000
      2034        40  DOPC      H15C            6.7959308507       20.7083685643       17.5316801547  MEMB      12              0.0000000000
      2035        40  DOPC      C11             2.9062445141       19.1661943714       18.2655693398  MEMB      12              0.0000000000
      2036        40  DOPC      H11A            1.8133904277       19.1866623205       18.0666422749  MEMB      12              0.0000000000
      2037        40  DOPC      H11B            3.3440661751       18.6776528394       17.3689310240  MEMB      12              0.0000000000
      2038        40  DOPC      P               2.5349921367       17.0073702174       19.6515048835  MEMB      12              0.0000000000
      2039        40  DOPC      O13             1.2237109560       17.1530977621       20.3503063443  MEMB      12              0.0000000000
      2040        40  DOPC      O14             3.5038218234       15.9893666625       20.1626189248  MEMB      12              0.0000000000
      2041        40  DOPC      O12             3.1931834403       18.3469787605       19.3789466962  MEMB      12              0.0000000000
      2042        40  DOPC      O11             2.1075815291       16.5656296709       18.2462333376  MEMB      12              0.0000000000
      2043        40  DOPC      C1              2.5392669787       15.2694371057       17.8263148855  MEMB      12              0.0000000000
      2044        40  DOPC      HA              1.8311983057       15.0183146906       17.0078422201  MEMB      12              0.0000000000
      2045        40  DOPC      HB              2.3954478136       14.4516113113       18.5644191341  MEMB      12              0.0000000000
      2046        40  DOPC      C2              3.9098360600       15.2420483509       17.0309102391  MEMB      12              0.0000000000
      2047        40  DOPC      HS              4.6638306518       15.5759675428       17.7754309623  MEMB      12              0.0000000000
      2048        40  DOPC      O21             3.8475543580       16.0181447576       15.8243699847  MEMB      12              0.0000000000
      2049        40  DOPC      C21             4.9733180815       16.5934503853       15.4837769558  MEMB      12              0.0000000000
      2050        40  DOPC      O22             5.9832813769       16.5597118017       16.1002730542  MEMB      12              0.0000000000
      2051        40  DOPC      C22             4.7964937871       17.2973716387       14.1443818869  MEMB      12              0.0000000000
      2052        40  DOPC      H2R             4.8933877492       16.5526970771       13.3256069268  MEMB      12              0.0000000000
      2053        40  DOPC      H2S             5.7086001022       17.9291713920       14.0877065152  MEMB      12              0.0000000000
      2054        40  DOPC      C3              4.2020389757       13.7720027750       16.5573990088  MEMB      12              0.0000000000
      2055        40  DOPC      HX              4.3593294126       13.2871037561       17.5445430787  MEMB      12              0.0000000000
      2056        40  DOPC      HY              5.1537725896       13.7898476738       15.9845065641  MEMB      12              0.0000000000
      2057        40  DOPC      O31             3.0548786456       13.2636936435       15.8858877978  MEMB      12              0.0000000000
      2058        40  DOPC      C31             3.2353889257       13.1663807195       14.5432550364  MEMB      12              0.0000000000
      2059        40  DOPC      O32             4.2415377752       13.2816628921       13.9501614217  MEMB      12              0.0000000000
      2060        40  DOPC      C32             1.8461565536       12.7986323382       13.9690112265  MEMB      12              0.0000000000
      2061        40  DOPC      H2X             1.7783613385       11.6980765733       14.1050303158  MEMB      12              0.0000000000
      2062        40  DOPC      H2Y             1.0401140280       13.2804980509       14.5626621584  MEMB      12              0.0000000000
      2063        40  DOPC      C23             3.5323092424       18.1283519771       14.0541197692  MEMB      12              0.0000000000
      2064        40  DOPC      H3R             3.6622044280       18.9986137346       14.7324209474  MEMB      12              0.0000000000
      2065        40  DOPC      H3S             2.5852597476       17.6053739112       14.3069281537  MEMB      12              0.0000000000
      2066        40  DOPC      C24             3.3511309113       18.7609636055       12.6563449740  MEMB      12              0.0000000000
      2067        40  DOPC      H4R             4.3891082179       18.8868764810       12.2807516499  MEMB      12              0.0000000000
      2068        40  DOPC      H4S             2.8604927583       19.7077232836       12.9681799404  MEMB      12              0.0000000000
      2069        40  DOPC      C25             2.5919324846       17.8947639962       11.6602806370  MEMB      12              0.0000000000
      2070        40  DOPC      H5R             1.7214231762       18.4359981367       11.2317946543  MEMB      12              0.0000000000
      2071        40  DOPC      H5S             2.1972679359       17.0999238465       12.3287040888  MEMB      12              0.0000000000
      2072        40  DOPC      C26             3.3030814679       17.4150079890       10.3757149562  MEMB      12              0.0000000000
      2073        40  DOPC      H6R             2.5542909723       16.7760053275        9.8606330621  MEMB      12              0.0000000000
      2074        40  DOPC      H6S             4.1751176692       16.8010917408       10.6871322120  MEMB      12              0.0000000000
      2075        40  DOPC      C27             3.8062515570       18.6109889346        9.4891715612  MEMB      12              0.0000000000
      2076        40  DOPC      H7R             4.4299066929       18.2576208560        8.6403450255  MEMB      12              0.0000000000
      2077        40  DOPC      H7S             4.5446535370       19.1204240080       10.1445791936  MEMB      12              0.0000000000
      2078        40  DOPC      C28             2.7304463062       19.5838722518        8.8404419374  MEMB      12              0.0000000000
      2079        40  DOPC      H8R             3.2673938799       20.4015795383        8.3137893819  MEMB      12              0.0000000000
      2080        40  DOPC      H8S             2.1534855616       20.0609609228        9.6613091229  MEMB      12              0.0000000000
      2081        40  DOPC      C29             1.5938217456       18.9486035026        7.9212518240  MEMB      12              0.0000000000
      2082        40  DOPC      H9R             0.7872465894       18.3858993417        8.4139998154  MEMB      12              0.0000000000
      2083        40  DOPC      C210            1.5154470253       19.0146109511        6.5885267258  MEMB      12              0.0000000000
      2084        40  DOPC      H10R            0.6191410509       18.7121144000        6.0271610174  MEMB      12              0.0000000000
      2085        40  DOPC      C211            2.5621641212       19.7622740260        5.8470644684  MEMB      12              0.0000000000
      2086        40  DOPC      H11R            2.9882251903       20.5770845910        6.4706642530  MEMB      12              0.0000000000
      2087        40  DOPC      H11S            2.1114596855       20.2614017512        4.9627238073  MEMB      12              0.0000000000
      2088        40  DOPC      C212            3.6656184681       18.8455485156        5.3662894114  MEMB      12              0.0000000000
      2089        40  DOPC      H12R            4.2256681923       18.4768352584        6.2521314488  MEMB      12              0.0000000000
      2090        40  DOPC      H12S            4.4088927177       19.4438856418        4.7972052951  MEMB      12              0.0000000000
      2091        40  DOPC      C213            3.2526365372       17.7599588970        4.4148673480  MEMB      12              0.0000000000
      2092        40  DOPC      H13R            2.6067907439       18.2172018600        3.6350386533  MEMB      12              0.0000000000
      2093        40  DOPC      H13S            2.7778722178       16.9915417784        5.0617487066  MEMB      12              0.0000000000
      2094        40  DOPC      C214            4.5366811205       17.1916929395        3.8686272200  MEMB      12              0.0000000000
      2095        40  DOPC      H14R            5.2609382171       17.0961543369        4.7056734150  MEMB      12              0.0000000000
      2096        40  DOPC      H14S            4.9851171371       18.0087519007        3.2639451367  MEMB      12              0.0000000000
      2097        40  DOPC      C215            4.3608424534       15.9353972652        3.0235034258  MEMB      12              0.0000000000
      2098        40  DOPC      H15R            3.5470430611       15.9327534620        2.2671661222  MEMB      12              0.0000000000
      2099        40  DOPC      H15S            4.1249399902       15.0647503350        3.6720743098  MEMB      12              0.0000000000
      2100        40  DOPC      C216            5.7396727094       15.5842185709        2.3641961510  MEMB      12              0.0000000000
      2101        40  DOPC      H16R            6.5170284017       15.3638444080        3.1267402470  MEMB      12              0.0000000000
      2102        40  DOPC      H16S            5.9892350416       16.5216251074        1.8226158604  MEMB      12              0.0000000000
      2103        40  DOPC      C217            5.6668215694       14.3692465994        1.4452571116  MEMB      12              0.0000000000
      2104        40  DOPC      H17R            6.6250050884       14.4401663193        0.8874254338  MEMB      12              0.0000000000
      2105        40  DOPC      H17S            4.7876117389       14.6084086009        0.8095583541  MEMB      12              0.0000000000
      2106        40  DOPC      C218            5.5050826142       13.0238223103        2.1505466756  MEMB      12              0.0000000000
      2107        40  DOPC      H18R            5.6651529743       12.2701750488        1.3500998967  MEMB      12              0.0000000000
      2108        40  DOPC      H18S            4.5531231753       12.8075149613        2.6809282987  MEMB      12              0.0000000000
      2109        40  DOPC      H18T            6.4129175876       12.9766529467        2.7892427745  MEMB      12              0.0000000000
      2110        40  DOPC      C33             1.7328897704       13.2091817206       12.4385672454  MEMB      12              0.0000000000
      2111        40  DOPC      H3X             2.3340965286       12.4135799393       11.9487822486  MEMB      12              0.0000000000
      2112        40  DOPC      H3Y             2.3170792499       14.1449018189       12.3063875780  MEMB      12              0.0000000000
      2113        40  DOPC      C34             0.3762038391       12.9107172988       11.8574480974  MEMB      12              0.0000000000
      2114        40  DOPC      H4X            -0.3578524442       13.3551379808       12.5631192807  MEMB      12              0.0000000000
      2115        40  DOPC      H4Y             0.1860128043       11.8170777389       11.8116084998  MEMB      12              0.0000000000
      2116        40  DOPC      C35             0.0364606620       13.5293587363       10.4222895712  MEMB      12              0.0000000000
      2117        40  DOPC      H5X            -0.1516466089       14.6189856534       10.5302214066  MEMB      12              0.0000000000
      2118        40  DOPC      H5Y            -0.9786212091       13.1974254142       10.1161032016  MEMB      12              0.0000000000
      2119        40  DOPC      C36             1.1492485245       13.2606704474        9.4455187796  MEMB      12              0.0000000000
      2120        40  DOPC      H6X             2.1746953130       13.4689400697        9.8188874788  MEMB      12              0.0000000000
      2121        40  DOPC      H6Y             1.2952654871       12.1994798284        9.1507732997  MEMB      12              0.0000000000
      2122        40  DOPC      C37             0.9970591587       13.9477797432        8.0993017093  MEMB      12              0.0000000000
      2123        40  DOPC      H7X             0.0561898867       13.5643866514        7.6497506268  MEMB      12              0.0000000000
      2124        40  DOPC      H7Y             0.7678080847       15.0100862239        8.3301039692  MEMB      12              0.0000000000
      2125        40  DOPC      C38             2.1931831156       13.7882265850        7.1020413758  MEMB      12              0.0000000000
      2126        40  DOPC      H8X             2.9773797183       14.3440427377        7.6591990135  MEMB      12              0.0000000000
      2127        40  DOPC      H8Y             1.8026154705       14.3254318944        6.2114301137  MEMB      12              0.0000000000
      2128        40  DOPC      C39             2.5304561541       12.3983562525        6.9051872361  MEMB      12              0.0000000000
      2129        40  DOPC      H9X             2.8055265082       11.9017216552        7.8473603443  MEMB      12              0.0000000000
      2130        40  DOPC      C310            2.4653755276       11.6886598971        5.7824751596  MEMB      12              0.0000000000
      2131        40  DOPC      H10X            2.8612598254       10.6640236718        5.8407559268  MEMB      12              0.0000000000
      2132        40  DOPC      C311            2.0531127366       12.0598502716        4.4264961880  MEMB      12              0.0000000000
      2133        40  DOPC      H11X            2.4719447192       11.3520753350        3.6795324243  MEMB      12              0.0000000000
      2134        40  DOPC      H11Y            2.6074259206       12.9992737086        4.2154466425  MEMB      12              0.0000000000
      2135        40  DOPC      C312            0.6361621500       12.4569549989        4.2145224386  MEMB      12              0.0000000000
      2136        40  DOPC      H12X            0.2909924690       13.2534582908        4.9078916826  MEMB      12              0.0000000000
      2137        40  DOPC      H12Y           -0.0071786643       11.5818656558        4.4483004705  MEMB      12              0.0000000000
      2138        40  DOPC      C313            0.3191016025       12.8325375784        2.7231098841  MEMB      12              0.0000000000
      2139        40  DOPC      H13X            1.1067629146       12.2275968806        2.2251554924  MEMB      12              0.0000000000
      2140        40  DOPC      H13Y           -0.7357006042       12.5401723422        2.5327543825  MEMB      12              0.0000000000
      2141        40  DOPC      C314            0.6219438738       14.3455037551        2.4911271514  MEMB      12              0.0000000000
      2142        40  DOPC      H14X            0.0026480656       14.8630813815        3.2546112551  MEMB      12              0.0000000000
      2143        40  DOPC      H14Y            1.6438657139       14.6109086215        2.8368974108  MEMB      12              0.0000000000
      2144        40  DOPC      C315            0.3716607190       14.7504728840        1.1075841203  MEMB      12              0.0000000000
      2145        40  DOPC      H15X           -0.7127752379       14.5620861466        0.9564880352  MEMB      12              0.0000000000
      2146        40  DOPC      H15Y            0.9828343264       14.1108107380        0.4355569475  MEMB      12              0.0000000000
      2147        40  DOPC      C316            0.7990533699       16.1814250561        0.7433552988  MEMB      12              0.0000000000
      2148        40  DOPC      H16X            1.8977739907       16.2972621308        0.6262411061  MEMB      12              0.0000000000
      2149        40  DOPC      H16Y            0.3498595708       16.4982359728       -0.2221376452  MEMB      12              0.0000000000
      2150        40  DOPC      C317            0.4430887317       17.2798915379        1.7725328592  MEMB      12              0.0000000000
      2151        40  DOPC      H17X            1.0681958141       17.0458652619        2.6606741278  MEMB      12              0.0000000000
      2152        40  DOPC      H17Y            0.7240347212       18.2703169544        1.3548638443  MEMB      12              0.0000000000
      2153        40  DOPC      C318           -1.0263402134       17.4832468795        2.1619237112  MEMB      12              0.0000000000
      2154        40  DOPC      H18X           -1.1694771772       17.6838563809        3.2452473666  MEMB      12              0.0000000000
      2155        40  DOPC      H18Y           -1.3416420804       18.3455739296        1.5363855227  MEMB      12              0.0000000000
      2156        40  DOPC      H18Z           -1.5534021437       16.5292385150        1.9465286854  MEMB      12              0.0000000000
      2157        41  DOPC      N             -18.7863986205        9.8439935330       21.0018972830  MEMB      13              0.0000000000
      2158        41  DOPC      C12           -18.5491780153       10.4399869490       19.6068275984  MEMB      13              0.0000000000
      2159        41  DOPC      H12A          -18.1505353318       11.4364488933       19.7274407265  MEMB      13              0.0000000000
      2160        41  DOPC      H12B          -19.5663323633       10.5478531476       19.2601837322  MEMB      13              0.0000000000
      2161        41  DOPC      C13           -19.3281587620        8.3853243910       20.9376130357  MEMB      13              0.0000000000
      2162        41  DOPC      H13A          -20.3953370314        8.4002909014       20.7723657791  MEMB      13              0.0000000000
      2163        41  DOPC      H13B          -18.9247395711        7.9405194395       20.0399485222  MEMB      13              0.0000000000
      2164        41  DOPC      H13C          -18.8941853296        7.8292446075       21.7554408685  MEMB      13              0.0000000000
      2165        41  DOPC      C14           -19.9173332732       10.6244235613       21.6353601631  MEMB      13              0.0000000000
      2166        41  DOPC      H14A          -20.2424434744       10.0351602899       22.4800329217  MEMB      13              0.0000000000
      2167        41  DOPC      H14B          -19.5219537074       11.5671417548       21.9837241211  MEMB      13              0.0000000000
      2168        41  DOPC      H14C          -20.6932446378       10.8464178639       20.9176695117  MEMB      13              0.0000000000
      2169        41  DOPC      C15           -17.5980237583        9.8472205067       21.9783233702  MEMB      13              0.0000000000
      2170        41  DOPC      H15A          -18.0222388827        9.4857437628       22.9034048122  MEMB      13              0.0000000000
      2171        41  DOPC      H15B          -17.1960269926       10.8487238459       21.9360170829  MEMB      13              0.0000000000
      2172        41  DOPC      H15C          -16.8876595380        9.0920028500       21.6759508796  MEMB      13              0.0000000000
      2173        41  DOPC      C11           -17.6205560498        9.6781600979       18.5715565361  MEMB      13              0.0000000000
      2174        41  DOPC      H11A          -17.5102507646       10.4407502214       17.7711753123  MEMB      13              0.0000000000
      2175        41  DOPC      H11B          -16.6156852279        9.6063971584       19.0399640198  MEMB      13              0.0000000000
      2176        41  DOPC      P             -19.4087019866        8.5503288704       17.0965859588  MEMB      13              0.0000000000
      2177        41  DOPC      O13           -20.2828127945        9.6966474045       17.2652515477  MEMB      13              0.0000000000
      2178        41  DOPC      O14           -20.1000248821        7.2417810653       16.9729811532  MEMB      13              0.0000000000
      2179        41  DOPC      O12           -18.1607287116        8.4478736123       18.1159652898  MEMB      13              0.0000000000
      2180        41  DOPC      O11           -18.5060781461        8.8674386986       15.8176380232  MEMB      13              0.0000000000
      2181        41  DOPC      C1            -17.4638299505        7.9935903226       15.4724326824  MEMB      13              0.0000000000
      2182        41  DOPC      HA            -17.9308721609        7.0596514754       15.0930241398  MEMB      13              0.0000000000
      2183        41  DOPC      HB            -16.7931442691        7.8164341654       16.3402560106  MEMB      13              0.0000000000
      2184        41  DOPC      C2            -16.5059836146        8.6247228760       14.3562486335  MEMB      13              0.0000000000
      2185        41  DOPC      HS            -15.9503101412        9.4010749011       14.9244256594  MEMB      13              0.0000000000
      2186        41  DOPC      O21           -17.3358134000        9.3446308043       13.3135639681  MEMB      13              0.0000000000
      2187        41  DOPC      C21           -16.7374089641       10.1875670533       12.6008338259  MEMB      13              0.0000000000
      2188        41  DOPC      O22           -15.6288528397       10.6454877145       12.7581385435  MEMB      13              0.0000000000
      2189        41  DOPC      C22           -17.8022009216       10.7535630534       11.5750842545  MEMB      13              0.0000000000
      2190        41  DOPC      H2R           -18.5891406123       11.3399380715       12.0958640781  MEMB      13              0.0000000000
      2191        41  DOPC      H2S           -18.2905727819        9.9589421900       10.9714355614  MEMB      13              0.0000000000
      2192        41  DOPC      C3            -15.5881957885        7.5329858516       13.7281744422  MEMB      13              0.0000000000
      2193        41  DOPC      HX            -14.8422802611        7.1287154185       14.4454584111  MEMB      13              0.0000000000
      2194        41  DOPC      HY            -14.9875786387        8.0882808440       12.9763582898  MEMB      13              0.0000000000
      2195        41  DOPC      O31           -16.3407285472        6.4521512597       13.1721137477  MEMB      13              0.0000000000
      2196        41  DOPC      C31           -16.6342075838        6.4479665396       11.8668056343  MEMB      13              0.0000000000
      2197        41  DOPC      O32           -16.0353646750        7.0886503663       11.0486777510  MEMB      13              0.0000000000
      2198        41  DOPC      C32           -17.8838316565        5.4586528098       11.5451367845  MEMB      13              0.0000000000
      2199        41  DOPC      H2X           -17.4510028689        4.5120061379       11.1567546968  MEMB      13              0.0000000000
      2200        41  DOPC      H2Y           -18.5566597488        5.1409215076       12.3701642331  MEMB      13              0.0000000000
      2201        41  DOPC      C23           -17.0766173540       11.7572199774       10.6484551165  MEMB      13              0.0000000000
      2202        41  DOPC      H3R           -16.6578452450       12.6140407808       11.2183749111  MEMB      13              0.0000000000
      2203        41  DOPC      H3S           -17.8797792799       12.2007819094       10.0219526496  MEMB      13              0.0000000000
      2204        41  DOPC      C24           -15.9171090842       11.2389393635        9.7241673528  MEMB      13              0.0000000000
      2205        41  DOPC      H4R           -15.0022397060       11.1107013184       10.3413300900  MEMB      13              0.0000000000
      2206        41  DOPC      H4S           -15.7648431297       12.0059866607        8.9350059075  MEMB      13              0.0000000000
      2207        41  DOPC      C25           -16.2132057994        9.9942592673        8.9464393476  MEMB      13              0.0000000000
      2208        41  DOPC      H5R           -17.1531229971       10.1979662623        8.3902200466  MEMB      13              0.0000000000
      2209        41  DOPC      H5S           -16.3831949953        9.1083594048        9.5949814219  MEMB      13              0.0000000000
      2210        41  DOPC      C26           -15.2135260437        9.5490770662        7.9197255211  MEMB      13              0.0000000000
      2211        41  DOPC      H6R           -14.2824723087        9.2652578967        8.4553621678  MEMB      13              0.0000000000
      2212        41  DOPC      H6S           -14.8211085371       10.3309209229        7.2348534958  MEMB      13              0.0000000000
      2213        41  DOPC      C27           -15.5372352284        8.5262184739        6.8266926348  MEMB      13              0.0000000000
      2214        41  DOPC      H7R           -15.8573970397        7.5707969719        7.2946529901  MEMB      13              0.0000000000
      2215        41  DOPC      H7S           -14.5914364637        8.2216149544        6.3296994543  MEMB      13              0.0000000000
      2216        41  DOPC      C28           -16.6462946134        9.0532268010        5.8888468540  MEMB      13              0.0000000000
      2217        41  DOPC      H8R           -17.4317750265        9.5129450156        6.5260285191  MEMB      13              0.0000000000
      2218        41  DOPC      H8S           -17.0958841493        8.2086959493        5.3240824205  MEMB      13              0.0000000000
      2219        41  DOPC      C29           -16.1403892861       10.1673052716        4.9566598038  MEMB      13              0.0000000000
      2220        41  DOPC      H9R           -16.4294588588       11.2091963398        5.1589011035  MEMB      13              0.0000000000
      2221        41  DOPC      C210          -15.2680275028        9.9526438095        3.9585203756  MEMB      13              0.0000000000
      2222        41  DOPC      H10R          -14.8117576929       10.8576098689        3.5309061162  MEMB      13              0.0000000000
      2223        41  DOPC      C211          -14.5644719005        8.6417307051        3.5091241030  MEMB      13              0.0000000000
      2224        41  DOPC      H11R          -14.8993281287        7.8189694066        4.1763990334  MEMB      13              0.0000000000
      2225        41  DOPC      H11S          -13.5308456654        9.0131380672        3.6764401002  MEMB      13              0.0000000000
      2226        41  DOPC      C212          -14.7557553278        8.3614229063        1.9995876902  MEMB      13              0.0000000000
      2227        41  DOPC      H12R          -14.1024479479        7.4838140164        1.8064213574  MEMB      13              0.0000000000
      2228        41  DOPC      H12S          -14.3692486873        9.2894768867        1.5266708002  MEMB      13              0.0000000000
      2229        41  DOPC      C213          -16.1807840751        8.1212345830        1.5172691894  MEMB      13              0.0000000000
      2230        41  DOPC      H13R          -16.3157193756        8.3796739411        0.4452046553  MEMB      13              0.0000000000
      2231        41  DOPC      H13S          -16.9011583335        8.7007040843        2.1333843766  MEMB      13              0.0000000000
      2232        41  DOPC      C214          -16.6608599943        6.6368515109        1.5508450218  MEMB      13              0.0000000000
      2233        41  DOPC      H14R          -17.7692926058        6.5636241255        1.5691720897  MEMB      13              0.0000000000
      2234        41  DOPC      H14S          -16.2339158182        6.0440642576        2.3878897531  MEMB      13              0.0000000000
      2235        41  DOPC      C215          -16.1983559064        5.8216196627        0.2541386629  MEMB      13              0.0000000000
      2236        41  DOPC      H15R          -16.6174043762        4.7961965171        0.3391486852  MEMB      13              0.0000000000
      2237        41  DOPC      H15S          -15.0996152540        5.7834566611        0.0940354981  MEMB      13              0.0000000000
      2238        41  DOPC      C216          -16.7961970161        6.3617342384       -1.0106306443  MEMB      13              0.0000000000
      2239        41  DOPC      H16R          -16.4567893662        7.4114391772       -1.1419433301  MEMB      13              0.0000000000
      2240        41  DOPC      H16S          -17.9052095850        6.4231164257       -0.9852428493  MEMB      13              0.0000000000
      2241        41  DOPC      C217          -16.3921212904        5.5175320321       -2.2244054055  MEMB      13              0.0000000000
      2242        41  DOPC      H17R          -15.3031557547        5.3107464295       -2.1488063839  MEMB      13              0.0000000000
      2243        41  DOPC      H17S          -16.6212158753        6.1697931831       -3.0941126442  MEMB      13              0.0000000000
      2244        41  DOPC      C218          -17.1731439806        4.1622571684       -2.3941809632  MEMB      13              0.0000000000
      2245        41  DOPC      H18R          -18.2784170894        4.2711544827       -2.4230547823  MEMB      13              0.0000000000
      2246        41  DOPC      H18S          -16.8614394760        3.4456571025       -1.6044689579  MEMB      13              0.0000000000
      2247        41  DOPC      H18T          -16.8305858093        3.6238990788       -3.3036567473  MEMB      13              0.0000000000
      2248        41  DOPC      C33           -18.6963896241        5.9859420733       10.3479959597  MEMB      13              0.0000000000
      2249        41  DOPC      H3X           -19.1118342718        5.1347166101        9.7673562489  MEMB      13              0.0000000000
      2250        41  DOPC      H3Y           -17.9794737412        6.5083521449        9.6790860441  MEMB      13              0.0000000000
      2251        41  DOPC      C34           -19.7406632689        7.0423402084       10.6478541214  MEMB      13              0.0000000000
      2252        41  DOPC      H4X           -19.3043121981        7.8611396433       11.2589895274  MEMB      13              0.0000000000
      2253        41  DOPC      H4Y           -20.5544744061        6.5075085117       11.1826322920  MEMB      13              0.0000000000
      2254        41  DOPC      C35           -20.3674459634        7.6825521972        9.3250882399  MEMB      13              0.0000000000
      2255        41  DOPC      H5X           -19.5789047677        8.0432541222        8.6305249958  MEMB      13              0.0000000000
      2256        41  DOPC      H5Y           -20.8907921367        8.6290088221        9.5793510946  MEMB      13              0.0000000000
      2257        41  DOPC      C36           -21.2515707366        6.7271862954        8.4890498128  MEMB      13              0.0000000000
      2258        41  DOPC      H6X           -20.6093289541        5.8848346167        8.1539532779  MEMB      13              0.0000000000
      2259        41  DOPC      H6Y           -21.9686884832        6.1798078053        9.1374634482  MEMB      13              0.0000000000
      2260        41  DOPC      C37           -21.9781886117        7.3181985294        7.2884820342  MEMB      13              0.0000000000
      2261        41  DOPC      H7X           -22.3834778342        6.4869863375        6.6727329305  MEMB      13              0.0000000000
      2262        41  DOPC      H7Y           -22.8415235221        7.8991911931        7.6776113805  MEMB      13              0.0000000000
      2263        41  DOPC      C38           -21.1486863721        8.2411424969        6.3406786740  MEMB      13              0.0000000000
      2264        41  DOPC      H8X           -20.6953437436        9.0766523689        6.9157652104  MEMB      13              0.0000000000
      2265        41  DOPC      H8Y           -21.9626209700        8.6649679113        5.7144168420  MEMB      13              0.0000000000
      2266        41  DOPC      C39           -20.0859710774        7.5796983677        5.4598018077  MEMB      13              0.0000000000
      2267        41  DOPC      H9X           -19.6240090742        6.7051839105        5.9412738743  MEMB      13              0.0000000000
      2268        41  DOPC      C310          -19.7321678926        8.0772053089        4.2303625513  MEMB      13              0.0000000000
      2269        41  DOPC      H10X          -18.9410268291        7.4826128292        3.7501999183  MEMB      13              0.0000000000
      2270        41  DOPC      C311          -20.3588207858        9.2765975153        3.4901302582  MEMB      13              0.0000000000
      2271        41  DOPC      H11X          -19.5239849776       10.0095668487        3.4789039428  MEMB      13              0.0000000000
      2272        41  DOPC      H11Y          -21.2050625850        9.7666266515        4.0174514642  MEMB      13              0.0000000000
      2273        41  DOPC      C312          -20.7539221624        8.8444855166        2.0335504520  MEMB      13              0.0000000000
      2274        41  DOPC      H12X          -21.4610428096        7.9937571911        2.1363250785  MEMB      13              0.0000000000
      2275        41  DOPC      H12Y          -19.8442772865        8.4014395100        1.5746643896  MEMB      13              0.0000000000
      2276        41  DOPC      C313          -21.3912154312       10.0326765564        1.2731544422  MEMB      13              0.0000000000
      2277        41  DOPC      H13X          -22.2720061640       10.3186759103        1.8869387830  MEMB      13              0.0000000000
      2278        41  DOPC      H13Y          -20.7808933131       10.9584229254        1.3425905513  MEMB      13              0.0000000000
      2279        41  DOPC      C314          -21.7532900160        9.7546752492       -0.1706716432  MEMB      13              0.0000000000
      2280        41  DOPC      H14X          -22.5168719555        8.9499077662       -0.1105651826  MEMB      13              0.0000000000
      2281        41  DOPC      H14Y          -22.1458739983       10.6008248982       -0.7741855043  MEMB      13              0.0000000000
      2282        41  DOPC      C315          -20.6342450316        9.2580006468       -1.0735304655  MEMB      13              0.0000000000
      2283        41  DOPC      H15X          -19.6368573609        9.2754725709       -0.5844150200  MEMB      13              0.0000000000
      2284        41  DOPC      H15Y          -20.5133584639       10.0071402592       -1.8850093404  MEMB      13              0.0000000000
      2285        41  DOPC      C316          -21.0807536247        7.8654922801       -1.6825371861  MEMB      13              0.0000000000
      2286        41  DOPC      H16X          -22.0935835477        8.0666293879       -2.0924640064  MEMB      13              0.0000000000
      2287        41  DOPC      H16Y          -20.4129118163        7.6140378556       -2.5340528891  MEMB      13              0.0000000000
      2288        41  DOPC      C317          -21.1534279032        6.5936961307       -0.7357464766  MEMB      13              0.0000000000
      2289        41  DOPC      H17X          -20.2041798424        6.6318405016       -0.1597293500  MEMB      13              0.0000000000
      2290        41  DOPC      H17Y          -22.0523481435        6.8444502146       -0.1329309133  MEMB      13              0.0000000000
      2291        41  DOPC      C318          -21.5412130102        5.2190735707       -1.3747130186  MEMB      13              0.0000000000
      2292        41  DOPC      H18X          -21.7959662686        4.6022870127       -0.4864591588  MEMB      13              0.0000000000
      2293        41  DOPC      H18Y          -22.4948000357        5.3588530230       -1.9273917162  MEMB      13              0.0000000000
      2294        41  DOPC      H18Z          -20.8397040856        4.7224152862       -2.0786570471  MEMB      13              0.0000000000
      2295        42  DOPC      N              16.8685171882       -3.5326211752       20.4092621476  MEMB      14              0.0000000000
      2296        42  DOPC      C12            18.3541096948       -3.7981824246       20.7660088126  MEMB      14              0.0000000000
      2297        42  DOPC      H12A           18.3410019515       -4.7382790686       21.2974657546  MEMB      14              0.0000000000
      2298        42  DOPC      H12B           18.7441558539       -3.1098295767       21.5011512884  MEMB      14              0.0000000000
      2299        42  DOPC      C13            16.4766730234       -4.6641628197       19.5000991789  MEMB      14              0.0000000000
      2300        42  DOPC      H13A           15.4008305908       -4.7500050545       19.4601722460  MEMB      14              0.0000000000
      2301        42  DOPC      H13B           16.8525786308       -4.5483012414       18.4942805306  MEMB      14              0.0000000000
      2302        42  DOPC      H13C           16.7941097699       -5.6027509206       19.9298505853  MEMB      14              0.0000000000
      2303        42  DOPC      C14            16.5883809870       -2.1310575751       19.8041899892  MEMB      14              0.0000000000
      2304        42  DOPC      H14A           15.5295735723       -1.9397256758       19.7108139247  MEMB      14              0.0000000000
      2305        42  DOPC      H14B           16.9833779519       -1.4592533952       20.5518908186  MEMB      14              0.0000000000
      2306        42  DOPC      H14C           17.1266117443       -1.9670674070       18.8823359104  MEMB      14              0.0000000000
      2307        42  DOPC      C15            16.1054737630       -3.6644329219       21.7314620287  MEMB      14              0.0000000000
      2308        42  DOPC      H15A           16.4604276213       -3.0549330611       22.5493358621  MEMB      14              0.0000000000
      2309        42  DOPC      H15B           16.3032728932       -4.6688118096       22.0756981279  MEMB      14              0.0000000000
      2310        42  DOPC      H15C           15.0483445408       -3.5044619928       21.5788602727  MEMB      14              0.0000000000
      2311        42  DOPC      C11            19.3683136358       -3.8667257194       19.6078269468  MEMB      14              0.0000000000
      2312        42  DOPC      H11A           20.2938608288       -4.0249497470       20.2016691762  MEMB      14              0.0000000000
      2313        42  DOPC      H11B           19.1985757437       -4.8396339119       19.0989460951  MEMB      14              0.0000000000
      2314        42  DOPC      P              19.9184389412       -2.6171770108       17.3931821149  MEMB      14              0.0000000000
      2315        42  DOPC      O13            21.3645992607       -2.9548778597       17.6285279745  MEMB      14              0.0000000000
      2316        42  DOPC      O14            19.6258494276       -1.3096988319       16.7583873517  MEMB      14              0.0000000000
      2317        42  DOPC      O12            19.2608481662       -2.6742678381       18.7800513176  MEMB      14              0.0000000000
      2318        42  DOPC      O11            19.2436513115       -3.8506970060       16.6210021370  MEMB      14              0.0000000000
      2319        42  DOPC      C1             17.8551819085       -3.6763589406       16.2984292405  MEMB      14              0.0000000000
      2320        42  DOPC      HA             17.5348448553       -2.7983825808       15.6977109077  MEMB      14              0.0000000000
      2321        42  DOPC      HB             17.2077584047       -3.6702668310       17.2012728866  MEMB      14              0.0000000000
      2322        42  DOPC      C2             17.3887253916       -4.8771108811       15.4569925569  MEMB      14              0.0000000000
      2323        42  DOPC      HS             17.6721686066       -5.7934905061       16.0175543214  MEMB      14              0.0000000000
      2324        42  DOPC      O21            18.0038619848       -4.7858557735       14.1705091407  MEMB      14              0.0000000000
      2325        42  DOPC      C21            18.4172225379       -6.0023151490       13.6336630594  MEMB      14              0.0000000000
      2326        42  DOPC      O22            18.2048490112       -7.0568093663       14.1573280351  MEMB      14              0.0000000000
      2327        42  DOPC      C22            19.0421001555       -5.6970692536       12.2875907971  MEMB      14              0.0000000000
      2328        42  DOPC      H2R            20.0796004213       -6.0806130970       12.1836280099  MEMB      14              0.0000000000
      2329        42  DOPC      H2S            19.1210934035       -4.5975921053       12.1489148133  MEMB      14              0.0000000000
      2330        42  DOPC      C3             15.8694504079       -4.9718660106       15.3043071674  MEMB      14              0.0000000000
      2331        42  DOPC      HX             15.3050370069       -5.0161210386       16.2602359891  MEMB      14              0.0000000000
      2332        42  DOPC      HY             15.6866863571       -5.9804728580       14.8757859138  MEMB      14              0.0000000000
      2333        42  DOPC      O31            15.4996801219       -3.9045371053       14.3806088086  MEMB      14              0.0000000000
      2334        42  DOPC      C31            14.8671139489       -2.8380656744       14.9924316337  MEMB      14              0.0000000000
      2335        42  DOPC      O32            14.4445429116       -2.8346392797       16.1351994681  MEMB      14              0.0000000000
      2336        42  DOPC      C32            14.6405262396       -1.6516315704       14.0717308881  MEMB      14              0.0000000000
      2337        42  DOPC      H2X            14.7796700510       -1.8507325721       12.9876097416  MEMB      14              0.0000000000
      2338        42  DOPC      H2Y            13.6324433173       -1.2313542710       14.2753388931  MEMB      14              0.0000000000
      2339        42  DOPC      C23            18.2838558010       -6.4199017681       11.1677471659  MEMB      14              0.0000000000
      2340        42  DOPC      H3R            17.7942833338       -7.3160744141       11.6053708782  MEMB      14              0.0000000000
      2341        42  DOPC      H3S            19.0150889395       -6.7958766528       10.4205778201  MEMB      14              0.0000000000
      2342        42  DOPC      C24            17.1999060828       -5.5592573522       10.3933891254  MEMB      14              0.0000000000
      2343        42  DOPC      H4R            16.8106149560       -6.1688462530        9.5500775057  MEMB      14              0.0000000000
      2344        42  DOPC      H4S            17.8412994717       -4.7352075882       10.0140773601  MEMB      14              0.0000000000
      2345        42  DOPC      C25            16.1601916186       -4.9633843511       11.1746596185  MEMB      14              0.0000000000
      2346        42  DOPC      H5R            16.5423942458       -4.4678445310       12.0926371019  MEMB      14              0.0000000000
      2347        42  DOPC      H5S            15.5104637418       -5.8150528582       11.4693374030  MEMB      14              0.0000000000
      2348        42  DOPC      C26            15.1877940838       -4.0153076576       10.3209732249  MEMB      14              0.0000000000
      2349        42  DOPC      H6R            15.7770765764       -3.1733346774        9.8988966122  MEMB      14              0.0000000000
      2350        42  DOPC      H6S            14.3521924110       -3.5763615764       10.9069910684  MEMB      14              0.0000000000
      2351        42  DOPC      C27            14.5861537694       -4.8012617279        9.0904940654  MEMB      14              0.0000000000
      2352        42  DOPC      H7R            13.9217422644       -5.5512642546        9.5704675761  MEMB      14              0.0000000000
      2353        42  DOPC      H7S            15.3395147255       -5.2616792212        8.4161173124  MEMB      14              0.0000000000
      2354        42  DOPC      C28            13.6556174209       -3.9692486365        8.3061782346  MEMB      14              0.0000000000
      2355        42  DOPC      H8R            13.0330578887       -3.5146189562        9.1062107690  MEMB      14              0.0000000000
      2356        42  DOPC      H8S            13.0350632485       -4.6026058101        7.6367818245  MEMB      14              0.0000000000
      2357        42  DOPC      C29            14.3888344764       -2.9876612677        7.3670080257  MEMB      14              0.0000000000
      2358        42  DOPC      H9R            15.0107421425       -2.2330015883        7.8707139271  MEMB      14              0.0000000000
      2359        42  DOPC      C210           14.4384452489       -2.9784232489        5.9824533599  MEMB      14              0.0000000000
      2360        42  DOPC      H10R           15.0486428210       -2.2225432842        5.4664060317  MEMB      14              0.0000000000
      2361        42  DOPC      C211           13.7677869997       -4.0959733294        5.1180223889  MEMB      14              0.0000000000
      2362        42  DOPC      H11R           12.6625291827       -3.9990434792        5.1757381582  MEMB      14              0.0000000000
      2363        42  DOPC      H11S           14.1294879276       -5.1092618826        5.3950415706  MEMB      14              0.0000000000
      2364        42  DOPC      C212           14.3294705072       -4.0895345227        3.6406435386  MEMB      14              0.0000000000
      2365        42  DOPC      H12R           13.9200560581       -5.0156647245        3.1834954518  MEMB      14              0.0000000000
      2366        42  DOPC      H12S           15.4144953166       -4.2838963110        3.7794421251  MEMB      14              0.0000000000
      2367        42  DOPC      C213           13.9310101830       -2.8692371311        2.7835446336  MEMB      14              0.0000000000
      2368        42  DOPC      H13R           14.4210389504       -1.9459109882        3.1599236531  MEMB      14              0.0000000000
      2369        42  DOPC      H13S           12.8521605856       -2.6084271687        2.8323601143  MEMB      14              0.0000000000
      2370        42  DOPC      C214           14.3243055260       -3.1054575807        1.3769775990  MEMB      14              0.0000000000
      2371        42  DOPC      H14R           14.0700223573       -2.1617385485        0.8487186775  MEMB      14              0.0000000000
      2372        42  DOPC      H14S           13.6837581998       -3.8363947966        0.8386921287  MEMB      14              0.0000000000
      2373        42  DOPC      C215           15.8204490814       -3.3064435881        1.2147496130  MEMB      14              0.0000000000
      2374        42  DOPC      H15R           16.1642615430       -4.1445176506        1.8579788634  MEMB      14              0.0000000000
      2375        42  DOPC      H15S           16.3557881285       -2.3523300256        1.4081406656  MEMB      14              0.0000000000
      2376        42  DOPC      C216           16.1894252807       -3.6278500285       -0.2147991717  MEMB      14              0.0000000000
      2377        42  DOPC      H16R           15.5903522731       -4.4779159114       -0.6057211633  MEMB      14              0.0000000000
      2378        42  DOPC      H16S           17.2418030707       -3.9387649945       -0.3884470464  MEMB      14              0.0000000000
      2379        42  DOPC      C217           15.9332935892       -2.4950774584       -1.2223241412  MEMB      14              0.0000000000
      2380        42  DOPC      H17R           16.7277593807       -1.7186659245       -1.2041547836  MEMB      14              0.0000000000
      2381        42  DOPC      H17S           14.9107814799       -2.0939250147       -1.0553907516  MEMB      14              0.0000000000
      2382        42  DOPC      C218           15.9631106225       -2.9846375625       -2.6753918438  MEMB      14              0.0000000000
      2383        42  DOPC      H18R           15.1196520532       -3.6480941449       -2.9630110141  MEMB      14              0.0000000000
      2384        42  DOPC      H18S           16.9004600870       -3.5783494010       -2.7319869403  MEMB      14              0.0000000000
      2385        42  DOPC      H18T           16.0552323143       -2.1389701013       -3.3900121098  MEMB      14              0.0000000000
      2386        42  DOPC      C33            15.7068224379       -0.6276991337       14.5725407309  MEMB      14              0.0000000000
      2387        42  DOPC      H3X            15.9337980497       -0.7719178225       15.6505039390  MEMB      14              0.0000000000
      2388        42  DOPC      H3Y            15.2179472023        0.3678115209       14.5071166786  MEMB      14              0.0000000000
      2389        42  DOPC      C34            16.9700890164       -0.4765266023       13.7675354846  MEMB      14              0.0000000000
      2390        42  DOPC      H4X            17.4664795952       -1.4549411318       13.9425282650  MEMB      14              0.0000000000
      2391        42  DOPC      H4Y            17.5215974522        0.3646440206       14.2393314955  MEMB      14              0.0000000000
      2392        42  DOPC      C35            16.7889129762       -0.0873516774       12.3272839429  MEMB      14              0.0000000000
      2393        42  DOPC      H5X            16.3993015976        0.9517740099       12.2749229432  MEMB      14              0.0000000000
      2394        42  DOPC      H5Y            16.0158146406       -0.6851827571       11.7988545298  MEMB      14              0.0000000000
      2395        42  DOPC      C36            18.0741044584       -0.1836718174       11.5239246885  MEMB      14              0.0000000000
      2396        42  DOPC      H6X            17.8728243963        0.1639227243       10.4880751165  MEMB      14              0.0000000000
      2397        42  DOPC      H6Y            18.7184780425        0.6411896564       11.8963588078  MEMB      14              0.0000000000
      2398        42  DOPC      C37            18.7640927617       -1.5657910647       11.4483538008  MEMB      14              0.0000000000
      2399        42  DOPC      H7X            18.9831751447       -1.8487102726       12.5001527661  MEMB      14              0.0000000000
      2400        42  DOPC      H7Y            18.1113045110       -2.4228891494       11.1771133447  MEMB      14              0.0000000000
      2401        42  DOPC      C38            20.1309102795       -1.4369063818       10.7782008812  MEMB      14              0.0000000000
      2402        42  DOPC      H8X            20.6656165325       -0.4864458295       10.9904157155  MEMB      14              0.0000000000
      2403        42  DOPC      H8Y            19.8937892789       -1.5020208504        9.6947554633  MEMB      14              0.0000000000
      2404        42  DOPC      C39            21.0877443904       -2.5928074956       11.0535946390  MEMB      14              0.0000000000
      2405        42  DOPC      H9X            21.3894580442       -2.6276178332       12.1108350502  MEMB      14              0.0000000000
      2406        42  DOPC      C310           21.5680053833       -3.5295043834       10.1638482587  MEMB      14              0.0000000000
      2407        42  DOPC      H10X           22.4322832906       -4.1608159518       10.4177570463  MEMB      14              0.0000000000
      2408        42  DOPC      C311           21.2291201813       -3.5224183159        8.7317749901  MEMB      14              0.0000000000
      2409        42  DOPC      H11X           21.7847640221       -4.2563054363        8.1096899955  MEMB      14              0.0000000000
      2410        42  DOPC      H11Y           21.4191337652       -2.5006626977        8.3390526691  MEMB      14              0.0000000000
      2411        42  DOPC      C312           19.7999055632       -3.8823988093        8.3855174680  MEMB      14              0.0000000000
      2412        42  DOPC      H12X           19.1086123935       -3.0792641166        8.7192987437  MEMB      14              0.0000000000
      2413        42  DOPC      H12Y           19.5166981362       -4.8471969401        8.8580421695  MEMB      14              0.0000000000
      2414        42  DOPC      C313           19.4990278730       -3.9709937489        6.9102357377  MEMB      14              0.0000000000
      2415        42  DOPC      H13X           20.2442090984       -4.7132704641        6.5523929174  MEMB      14              0.0000000000
      2416        42  DOPC      H13Y           18.5796139893       -4.5745678374        6.7530821037  MEMB      14              0.0000000000
      2417        42  DOPC      C314           19.4430806394       -2.6793904202        6.0113652932  MEMB      14              0.0000000000
      2418        42  DOPC      H14X           18.6489578448       -2.0133230159        6.4114198136  MEMB      14              0.0000000000
      2419        42  DOPC      H14Y           20.4533105947       -2.2178002106        6.0376492466  MEMB      14              0.0000000000
      2420        42  DOPC      C315           19.1797172429       -2.9750813590        4.4932409894  MEMB      14              0.0000000000
      2421        42  DOPC      H15X           18.1999770305       -3.4966373048        4.4441547999  MEMB      14              0.0000000000
      2422        42  DOPC      H15Y           20.0583855194       -3.5556531091        4.1394057275  MEMB      14              0.0000000000
      2423        42  DOPC      C316           19.0782335923       -1.6574176654        3.7078764637  MEMB      14              0.0000000000
      2424        42  DOPC      H16X           19.7762214507       -0.8801779481        4.0860726694  MEMB      14              0.0000000000
      2425        42  DOPC      H16Y           19.2713111605       -1.8992578670        2.6408450320  MEMB      14              0.0000000000
      2426        42  DOPC      C317           17.7014158395       -1.0539380726        3.6645076111  MEMB      14              0.0000000000
      2427        42  DOPC      H17X           16.9179438015       -1.8292976880        3.5255471576  MEMB      14              0.0000000000
      2428        42  DOPC      H17Y           17.5873243077       -0.5449398999        4.6454389165  MEMB      14              0.0000000000
      2429        42  DOPC      C318           17.4281876267       -0.0403130158        2.5624961916  MEMB      14              0.0000000000
      2430        42  DOPC      H18X           17.9607206969        0.9189478979        2.7372766648  MEMB      14              0.0000000000
      2431        42  DOPC      H18Y           17.6312246530       -0.6007210555        1.6249243563  MEMB      14              0.0000000000
      2432        42  DOPC      H18Z           16.3353956768        0.1575307637        2.5311210888  MEMB      14              0.0000000000
      2433        43  DOPC      N               8.9734945609      -16.4438091569       19.8710921533  MEMB      15              0.0000000000
      2434        43  DOPC      C12            10.0627178275      -16.1509315359       18.8595810510  MEMB      15              0.0000000000
      2435        43  DOPC      H12A           10.3454399495      -15.1117642652       18.7783424856  MEMB      15              0.0000000000
      2436        43  DOPC      H12B            9.6032954908      -16.4142742975       17.9183149785  MEMB      15              0.0000000000
      2437        43  DOPC      C13             8.0483161762      -15.2715924734       19.7861172301  MEMB      15              0.0000000000
      2438        43  DOPC      H13A            7.0522276964      -15.5722748602       20.0755961239  MEMB      15              0.0000000000
      2439        43  DOPC      H13B            8.2838568846      -14.5937640136       20.5932535530  MEMB      15              0.0000000000
      2440        43  DOPC      H13C            8.1436891477      -14.7816267212       18.8283920496  MEMB      15              0.0000000000
      2441        43  DOPC      C14             9.3664305010      -16.5424279098       21.2879380019  MEMB      15              0.0000000000
      2442        43  DOPC      H14A            8.5894249722      -17.0870750606       21.8037112701  MEMB      15              0.0000000000
      2443        43  DOPC      H14B           10.1643986243      -17.2327253785       21.5184510512  MEMB      15              0.0000000000
      2444        43  DOPC      H14C            9.7755800877      -15.6455451247       21.7290706852  MEMB      15              0.0000000000
      2445        43  DOPC      C15             8.2812369788      -17.6646568936       19.4924048380  MEMB      15              0.0000000000
      2446        43  DOPC      H15A            8.7718027187      -18.5971463329       19.7294882163  MEMB      15              0.0000000000
      2447        43  DOPC      H15B            8.1766887942      -17.6562269170       18.4175101355  MEMB      15              0.0000000000
      2448        43  DOPC      H15C            7.3565891311      -17.8068363908       20.0320451209  MEMB      15              0.0000000000
      2449        43  DOPC      C11            11.3870336090      -16.8803615980       19.1009329643  MEMB      15              0.0000000000
      2450        43  DOPC      H11A           12.0700273605      -16.6329505189       18.2603210567  MEMB      15              0.0000000000
      2451        43  DOPC      H11B           11.7581990645      -16.6057908503       20.1114616067  MEMB      15              0.0000000000
      2452        43  DOPC      P              11.9658703752      -19.2557150938       18.1201908231  MEMB      15              0.0000000000
      2453        43  DOPC      O13            11.3965109661      -20.5925629429       18.3456613113  MEMB      15              0.0000000000
      2454        43  DOPC      O14            13.3858222116      -19.1325449895       18.2156837366  MEMB      15              0.0000000000
      2455        43  DOPC      O12            11.2272177337      -18.3259676407       19.1279702017  MEMB      15              0.0000000000
      2456        43  DOPC      O11            11.5500507128      -18.6875567572       16.7924276926  MEMB      15              0.0000000000
      2457        43  DOPC      C1             10.2689868386      -18.6107886827       16.2608623484  MEMB      15              0.0000000000
      2458        43  DOPC      HA             10.1730137193      -17.5641042079       15.9009154067  MEMB      15              0.0000000000
      2459        43  DOPC      HB              9.5008223837      -18.8267997947       17.0338976669  MEMB      15              0.0000000000
      2460        43  DOPC      C2             10.0541618924      -19.5270144275       15.0038982731  MEMB      15              0.0000000000
      2461        43  DOPC      HS              9.9629202892      -20.5847934032       15.3311589622  MEMB      15              0.0000000000
      2462        43  DOPC      O21            11.2791821778      -19.4697354572       14.1569105411  MEMB      15              0.0000000000
      2463        43  DOPC      C21            11.4228281052      -20.3510116683       13.2140112757  MEMB      15              0.0000000000
      2464        43  DOPC      O22            10.9620004312      -21.4953849280       13.2324867211  MEMB      15              0.0000000000
      2465        43  DOPC      C22            12.4733492611      -19.8750149604       12.2196472714  MEMB      15              0.0000000000
      2466        43  DOPC      H2R            13.3536652832      -19.7389302560       12.8836094298  MEMB      15              0.0000000000
      2467        43  DOPC      H2S            12.1398156476      -18.9169258797       11.7667215922  MEMB      15              0.0000000000
      2468        43  DOPC      C3              8.8540562110      -19.2339814400       14.0835607190  MEMB      15              0.0000000000
      2469        43  DOPC      HX              7.8958579977      -19.5286054474       14.5624909127  MEMB      15              0.0000000000
      2470        43  DOPC      HY              8.8005115688      -19.8125932633       13.1366385075  MEMB      15              0.0000000000
      2471        43  DOPC      O31             8.8311643550      -17.7881189665       13.8032430750  MEMB      15              0.0000000000
      2472        43  DOPC      C31             8.9263110224      -17.5045804698       12.5253915863  MEMB      15              0.0000000000
      2473        43  DOPC      O32             9.2814088102      -18.2161720854       11.6678952627  MEMB      15              0.0000000000
      2474        43  DOPC      C32             8.8172143867      -16.0141270270       12.4502643681  MEMB      15              0.0000000000
      2475        43  DOPC      H2X             7.8139991467      -15.7945675134       12.0263844626  MEMB      15              0.0000000000
      2476        43  DOPC      H2Y             8.7472577679      -15.3876053253       13.3650854565  MEMB      15              0.0000000000
      2477        43  DOPC      C23            12.5901080069      -20.9466217262       11.1166688502  MEMB      15              0.0000000000
      2478        43  DOPC      H3R            12.5032271975      -22.0284357948       11.3542636874  MEMB      15              0.0000000000
      2479        43  DOPC      H3S            13.5664304445      -20.8543784017       10.5945511126  MEMB      15              0.0000000000
      2480        43  DOPC      C24            11.5855867668      -20.7247365423        9.9825342240  MEMB      15              0.0000000000
      2481        43  DOPC      H4R            11.6582070724      -19.6622453369        9.6660542076  MEMB      15              0.0000000000
      2482        43  DOPC      H4S            10.5243136914      -20.8712257584       10.2767478017  MEMB      15              0.0000000000
      2483        43  DOPC      C25            11.6998386838      -21.6974111746        8.7999378781  MEMB      15              0.0000000000
      2484        43  DOPC      H5R            11.3376221616      -22.6966917165        9.1232937041  MEMB      15              0.0000000000
      2485        43  DOPC      H5S            12.7522392120      -21.7472579947        8.4473914703  MEMB      15              0.0000000000
      2486        43  DOPC      C26            10.8111215885      -21.3402332845        7.5700542403  MEMB      15              0.0000000000
      2487        43  DOPC      H6R            10.8082115034      -20.2389128582        7.4237455954  MEMB      15              0.0000000000
      2488        43  DOPC      H6S             9.7387212227      -21.6255011630        7.6239139193  MEMB      15              0.0000000000
      2489        43  DOPC      C27            11.2490212358      -21.8755488001        6.1855889806  MEMB      15              0.0000000000
      2490        43  DOPC      H7R            11.2383061982      -22.9846937465        6.1223156759  MEMB      15              0.0000000000
      2491        43  DOPC      H7S            12.3302374360      -21.6264452098        6.1286638172  MEMB      15              0.0000000000
      2492        43  DOPC      C28            10.5590448893      -21.1723835207        5.0206680413  MEMB      15              0.0000000000
      2493        43  DOPC      H8R            10.9414736703      -21.5975573335        4.0681467842  MEMB      15              0.0000000000
      2494        43  DOPC      H8S            10.9949729516      -20.1522180755        4.9610812816  MEMB      15              0.0000000000
      2495        43  DOPC      C29             9.0581540956      -21.2439877960        5.0760361669  MEMB      15              0.0000000000
      2496        43  DOPC      H9R             8.6333111954      -22.2517041500        5.1944281826  MEMB      15              0.0000000000
      2497        43  DOPC      C210            8.2188207287      -20.2302264346        5.1161459923  MEMB      15              0.0000000000
      2498        43  DOPC      H10R            7.1539365452      -20.4691059953        5.2538353877  MEMB      15              0.0000000000
      2499        43  DOPC      C211            8.5638874923      -18.7630690255        5.0625946885  MEMB      15              0.0000000000
      2500        43  DOPC      H11R            8.1530026201      -18.2656396099        4.1581288289  MEMB      15              0.0000000000
      2501        43  DOPC      H11S            9.6306952467      -18.5089341043        5.2405215531  MEMB      15              0.0000000000
      2502        43  DOPC      C212            7.7978212173      -17.9623280057        6.2119576370  MEMB      15              0.0000000000
      2503        43  DOPC      H12R            8.0010895693      -18.5426230437        7.1373008688  MEMB      15              0.0000000000
      2504        43  DOPC      H12S            6.7105251798      -18.0083486681        5.9883732552  MEMB      15              0.0000000000
      2505        43  DOPC      C213            8.2464054075      -16.5396779190        6.4294961602  MEMB      15              0.0000000000
      2506        43  DOPC      H13R            9.2836883278      -16.4732115586        6.8218575618  MEMB      15              0.0000000000
      2507        43  DOPC      H13S            7.6614625641      -16.0037863735        7.2073020484  MEMB      15              0.0000000000
      2508        43  DOPC      C214            8.1657926107      -15.7441563084        5.0638506937  MEMB      15              0.0000000000
      2509        43  DOPC      H14R            7.0978155684      -15.7442159618        4.7576710823  MEMB      15              0.0000000000
      2510        43  DOPC      H14S            8.7737441177      -16.2303253654        4.2711617033  MEMB      15              0.0000000000
      2511        43  DOPC      C215            8.3500690567      -14.2434940656        5.0904235786  MEMB      15              0.0000000000
      2512        43  DOPC      H15R            7.7809787433      -13.8371440957        5.9537527656  MEMB      15              0.0000000000
      2513        43  DOPC      H15S            8.0284376332      -13.9364547291        4.0722875668  MEMB      15              0.0000000000
      2514        43  DOPC      C216            9.8173798552      -13.8745018726        5.3594324013  MEMB      15              0.0000000000
      2515        43  DOPC      H16R           10.2510439659      -14.5761173475        6.1037388980  MEMB      15              0.0000000000
      2516        43  DOPC      H16S            9.9975442725      -12.8810179578        5.8229536462  MEMB      15              0.0000000000
      2517        43  DOPC      C217           10.6797370103      -13.8544083078        4.1408110727  MEMB      15              0.0000000000
      2518        43  DOPC      H17R           10.5656029483      -14.6854090993        3.4122975120  MEMB      15              0.0000000000
      2519        43  DOPC      H17S           11.6795543503      -14.0092017413        4.5998589013  MEMB      15              0.0000000000
      2520        43  DOPC      C218           10.6301255065      -12.6143395902        3.2757786780  MEMB      15              0.0000000000
      2521        43  DOPC      H18R           11.3012016064      -12.8178579425        2.4140604738  MEMB      15              0.0000000000
      2522        43  DOPC      H18S           10.8675989059      -11.7055690182        3.8691282334  MEMB      15              0.0000000000
      2523        43  DOPC      H18T            9.7425947502      -12.4648435723        2.6244239841  MEMB      15              0.0000000000
      2524        43  DOPC      C33             9.9665639840      -15.4171198503       11.6723022261  MEMB      15              0.0000000000
      2525        43  DOPC      H3X            10.8908684569      -15.6931630257       12.2234665616  MEMB      15              0.0000000000
      2526        43  DOPC      H3Y             9.8636749446      -14.3236565619       11.8398513080  MEMB      15              0.0000000000
      2527        43  DOPC      C34            10.1311265323      -15.6663399436       10.1343058534  MEMB      15              0.0000000000
      2528        43  DOPC      H4X             9.2617903228      -15.1497513754        9.6741835554  MEMB      15              0.0000000000
      2529        43  DOPC      H4Y            10.1946038070      -16.7562980286        9.9286774821  MEMB      15              0.0000000000
      2530        43  DOPC      C35            11.4818289752      -15.1223720043        9.6146947208  MEMB      15              0.0000000000
      2531        43  DOPC      H5X            12.1430224962      -14.7327062805       10.4180038667  MEMB      15              0.0000000000
      2532        43  DOPC      H5Y            11.3573923294      -14.1820068856        9.0362921138  MEMB      15              0.0000000000
      2533        43  DOPC      C36            12.3574659508      -16.0443024255        8.8174652457  MEMB      15              0.0000000000
      2534        43  DOPC      H6X            12.5063902087      -16.9092640644        9.4986297941  MEMB      15              0.0000000000
      2535        43  DOPC      H6Y            11.8842121084      -16.2804346762        7.8404331346  MEMB      15              0.0000000000
      2536        43  DOPC      C37            13.7021564430      -15.4429679705        8.4015081403  MEMB      15              0.0000000000
      2537        43  DOPC      H7X            13.6117803523      -14.3601925743        8.1696663434  MEMB      15              0.0000000000
      2538        43  DOPC      H7Y            14.3467811914      -15.3663225948        9.3031208162  MEMB      15              0.0000000000
      2539        43  DOPC      C38            14.2850673891      -16.1385888296        7.2040997534  MEMB      15              0.0000000000
      2540        43  DOPC      H8X            15.1499151405      -15.4870419449        6.9554105054  MEMB      15              0.0000000000
      2541        43  DOPC      H8Y            13.5547398830      -16.1117514626        6.3673065131  MEMB      15              0.0000000000
      2542        43  DOPC      C39            14.7840185421      -17.5177771633        7.5615733187  MEMB      15              0.0000000000
      2543        43  DOPC      H9X            15.4986684839      -17.6719651948        8.3834619630  MEMB      15              0.0000000000
      2544        43  DOPC      C310           14.5007753254      -18.7099261316        6.9708447494  MEMB      15              0.0000000000
      2545        43  DOPC      H10X           14.9285264497      -19.6486752616        7.3526545473  MEMB      15              0.0000000000
      2546        43  DOPC      C311           13.6278052861      -18.8866089474        5.7923842079  MEMB      15              0.0000000000
      2547        43  DOPC      H11X           12.9714855888      -17.9958339284        5.6919584241  MEMB      15              0.0000000000
      2548        43  DOPC      H11Y           12.9462421259      -19.7451391771        5.9732674140  MEMB      15              0.0000000000
      2549        43  DOPC      C312           14.3779822178      -18.9879011032        4.4288919575  MEMB      15              0.0000000000
      2550        43  DOPC      H12X           14.9721244387      -19.9220154213        4.3353724277  MEMB      15              0.0000000000
      2551        43  DOPC      H12Y           15.0368689361      -18.1020177238        4.3047962883  MEMB      15              0.0000000000
      2552        43  DOPC      C313           13.4233493998      -19.0552363162        3.2426820465  MEMB      15              0.0000000000
      2553        43  DOPC      H13X           13.9656693445      -19.4365217151        2.3511491810  MEMB      15              0.0000000000
      2554        43  DOPC      H13Y           12.6450023519      -19.8194774191        3.4534717621  MEMB      15              0.0000000000
      2555        43  DOPC      C314           12.7330342586      -17.7446690540        2.8973590828  MEMB      15              0.0000000000
      2556        43  DOPC      H14X           12.0626540107      -17.4894934772        3.7457675830  MEMB      15              0.0000000000
      2557        43  DOPC      H14Y           13.4528031802      -16.9016359839        2.9718493484  MEMB      15              0.0000000000
      2558        43  DOPC      C315           11.8774066656      -17.8648222453        1.5468794102  MEMB      15              0.0000000000
      2559        43  DOPC      H15X           12.7164774780      -17.8838201474        0.8189219416  MEMB      15              0.0000000000
      2560        43  DOPC      H15Y           11.2209089635      -16.9706001926        1.6076945395  MEMB      15              0.0000000000
      2561        43  DOPC      C316           10.9654513397      -19.1418884150        1.4789596174  MEMB      15              0.0000000000
      2562        43  DOPC      H16X           11.3558712022      -20.0844353659        1.0390751150  MEMB      15              0.0000000000
      2563        43  DOPC      H16Y           10.7112043365      -19.4112947513        2.5263847223  MEMB      15              0.0000000000
      2564        43  DOPC      C317            9.7197126312      -18.9197839679        0.6733510052  MEMB      15              0.0000000000
      2565        43  DOPC      H17X            9.2804943624      -17.9050253549        0.7813944287  MEMB      15              0.0000000000
      2566        43  DOPC      H17Y           10.0991116495      -19.0005488893       -0.3677324393  MEMB      15              0.0000000000
      2567        43  DOPC      C318            8.7279968664      -19.9953263600        1.0618177500  MEMB      15              0.0000000000
      2568        43  DOPC      H18X            9.1688250235      -21.0135771225        1.0056341739  MEMB      15              0.0000000000
      2569        43  DOPC      H18Y            8.3647440411      -19.9213016796        2.1091421589  MEMB      15              0.0000000000
      2570        43  DOPC      H18Z            7.8938107432      -19.9616086222        0.3287972196  MEMB      15              0.0000000000
      2571        44  DOPC      N             -12.7576081211      -13.4682411543       20.8129279074  MEMB      16              0.0000000000
      2572        44  DOPC      C12           -13.3306816323      -13.1243614471       19.4230474730  MEMB      16              0.0000000000
      2573        44  DOPC      H12A          -12.5119291339      -13.3425456204       18.7533908538  MEMB      16              0.0000000000
      2574        44  DOPC      H12B          -13.5942967882      -12.0876241084       19.2744449576  MEMB      16              0.0000000000
      2575        44  DOPC      C13           -12.2813031676      -14.8799613747       20.7916917535  MEMB      16              0.0000000000
      2576        44  DOPC      H13A          -12.1059883093      -15.3202938233       21.7621411461  MEMB      16              0.0000000000
      2577        44  DOPC      H13B          -13.1024052458      -15.4118242229       20.3341839428  MEMB      16              0.0000000000
      2578        44  DOPC      H13C          -11.3179362783      -14.9275970091       20.3058367631  MEMB      16              0.0000000000
      2579        44  DOPC      C14           -13.7630611693      -13.2346707261       21.8253820245  MEMB      16              0.0000000000
      2580        44  DOPC      H14A          -14.5090357988      -14.0118950872       21.7489366470  MEMB      16              0.0000000000
      2581        44  DOPC      H14B          -13.3564886400      -13.2784884489       22.8249712302  MEMB      16              0.0000000000
      2582        44  DOPC      H14C          -14.3096388169      -12.3130859427       21.6899766334  MEMB      16              0.0000000000
      2583        44  DOPC      C15           -11.5637967311      -12.6066202691       21.0528153298  MEMB      16              0.0000000000
      2584        44  DOPC      H15A          -11.8025328266      -11.5730641015       20.8499194225  MEMB      16              0.0000000000
      2585        44  DOPC      H15B          -10.7861993181      -12.9846169520       20.4056207029  MEMB      16              0.0000000000
      2586        44  DOPC      H15C          -11.1362814538      -12.7826228827       22.0288552032  MEMB      16              0.0000000000
      2587        44  DOPC      C11           -14.4527665153      -14.0992952678       18.9872194977  MEMB      16              0.0000000000
      2588        44  DOPC      H11A          -15.1838436753      -14.2521006091       19.8097142215  MEMB      16              0.0000000000
      2589        44  DOPC      H11B          -15.0794277371      -13.6120341753       18.2099207428  MEMB      16              0.0000000000
      2590        44  DOPC      P             -13.3147707617      -15.8600326432       17.2198430530  MEMB      16              0.0000000000
      2591        44  DOPC      O13           -13.9749083838      -17.0625049068       16.6016549014  MEMB      16              0.0000000000
      2592        44  DOPC      O14           -11.8967944819      -15.9896492904       17.4737489875  MEMB      16              0.0000000000
      2593        44  DOPC      O12           -14.0987659160      -15.4088973561       18.5437005506  MEMB      16              0.0000000000
      2594        44  DOPC      O11           -13.4869043216      -14.6021648595       16.2679684761  MEMB      16              0.0000000000
      2595        44  DOPC      C1            -14.7709856310      -14.2821739979       15.7135466533  MEMB      16              0.0000000000
      2596        44  DOPC      HA            -14.7957226993      -13.1754656853       15.8079180415  MEMB      16              0.0000000000
      2597        44  DOPC      HB            -15.5934249169      -14.7421282203       16.3020672716  MEMB      16              0.0000000000
      2598        44  DOPC      C2            -14.7947621755      -14.5824964847       14.1479941850  MEMB      16              0.0000000000
      2599        44  DOPC      HS            -14.8782449044      -15.6880558101       14.0766479562  MEMB      16              0.0000000000
      2600        44  DOPC      O21           -13.7192218652      -13.8625115092       13.4978387412  MEMB      16              0.0000000000
      2601        44  DOPC      C21           -12.8725552871      -14.6970435690       12.8596910492  MEMB      16              0.0000000000
      2602        44  DOPC      O22           -12.9802626825      -15.9390417986       12.8216874764  MEMB      16              0.0000000000
      2603        44  DOPC      C22           -11.7551866171      -13.9711561916       12.1430948421  MEMB      16              0.0000000000
      2604        44  DOPC      H2R           -10.8581543341      -13.9068990396       12.7954180830  MEMB      16              0.0000000000
      2605        44  DOPC      H2S           -12.0195122232      -12.9091694721       11.9516863167  MEMB      16              0.0000000000
      2606        44  DOPC      C3            -16.0159852545      -14.0700181174       13.4600955385  MEMB      16              0.0000000000
      2607        44  DOPC      HX            -16.0556049634      -12.9648323919       13.3537206525  MEMB      16              0.0000000000
      2608        44  DOPC      HY            -16.8576014173      -14.3645508930       14.1228579123  MEMB      16              0.0000000000
      2609        44  DOPC      O31           -16.1713754889      -14.5928280634       12.1221930339  MEMB      16              0.0000000000
      2610        44  DOPC      C31           -16.9563894706      -15.6164070519       11.9955314516  MEMB      16              0.0000000000
      2611        44  DOPC      O32           -17.5725573029      -16.2143484605       12.8906302099  MEMB      16              0.0000000000
      2612        44  DOPC      C32           -16.9560389262      -16.1155383703       10.5071627136  MEMB      16              0.0000000000
      2613        44  DOPC      H2X           -16.0236205133      -15.7168351483       10.0533430018  MEMB      16              0.0000000000
      2614        44  DOPC      H2Y           -17.0324818222      -17.2235673643       10.4797876139  MEMB      16              0.0000000000
      2615        44  DOPC      C23           -11.3591198626      -14.6958747072       10.7954300879  MEMB      16              0.0000000000
      2616        44  DOPC      H3R           -11.2706165681      -15.7936459064       10.9416722374  MEMB      16              0.0000000000
      2617        44  DOPC      H3S           -10.3889191460      -14.2057362616       10.5656566087  MEMB      16              0.0000000000
      2618        44  DOPC      C24           -12.4380247438      -14.5338345837        9.7294743751  MEMB      16              0.0000000000
      2619        44  DOPC      H4R           -12.3597616950      -13.6244235751        9.0960965865  MEMB      16              0.0000000000
      2620        44  DOPC      H4S           -13.4637601276      -14.4677193309       10.1511582734  MEMB      16              0.0000000000
      2621        44  DOPC      C25           -12.4709251917      -15.7002890936        8.6696103204  MEMB      16              0.0000000000
      2622        44  DOPC      H5R           -12.9546362096      -16.5848706123        9.1363655957  MEMB      16              0.0000000000
      2623        44  DOPC      H5S           -11.4307940222      -15.9762676879        8.3934154007  MEMB      16              0.0000000000
      2624        44  DOPC      C26           -13.1434012940      -15.2305283084        7.3384218301  MEMB      16              0.0000000000
      2625        44  DOPC      H6R           -12.6861008064      -14.3059678158        6.9256439550  MEMB      16              0.0000000000
      2626        44  DOPC      H6S           -14.1883751259      -15.0616565167        7.6758133237  MEMB      16              0.0000000000
      2627        44  DOPC      C27           -12.8836498118      -16.2747718485        6.2497473312  MEMB      16              0.0000000000
      2628        44  DOPC      H7R           -11.8453942281      -16.6701578890        6.2537993137  MEMB      16              0.0000000000
      2629        44  DOPC      H7S           -13.0344825840      -15.7630823425        5.2751990932  MEMB      16              0.0000000000
      2630        44  DOPC      C28           -13.9698269418      -17.4491264818        6.0453657942  MEMB      16              0.0000000000
      2631        44  DOPC      H8R           -13.6247712982      -18.3147796362        6.6502642403  MEMB      16              0.0000000000
      2632        44  DOPC      H8S           -13.7994108577      -17.8386156825        5.0189265474  MEMB      16              0.0000000000
      2633        44  DOPC      C29           -15.4189421853      -16.9692512521        6.3090931837  MEMB      16              0.0000000000
      2634        44  DOPC      H9R           -15.6370395943      -16.9161952049        7.3859487635  MEMB      16              0.0000000000
      2635        44  DOPC      C210          -16.3532382369      -16.7135488419        5.3979336609  MEMB      16              0.0000000000
      2636        44  DOPC      H10R          -17.3211204093      -16.2805843429        5.6907576889  MEMB      16              0.0000000000
      2637        44  DOPC      C211          -16.1201925074      -16.8421207339        3.9346788962  MEMB      16              0.0000000000
      2638        44  DOPC      H11R          -17.0074435828      -17.3065235173        3.4536005812  MEMB      16              0.0000000000
      2639        44  DOPC      H11S          -15.1803567199      -17.3611889919        3.6490253676  MEMB      16              0.0000000000
      2640        44  DOPC      C212          -16.0388985659      -15.4039962449        3.3020639221  MEMB      16              0.0000000000
      2641        44  DOPC      H12R          -16.2391287359      -15.5929974167        2.2257247193  MEMB      16              0.0000000000
      2642        44  DOPC      H12S          -15.0713744389      -14.9788613986        3.6448142992  MEMB      16              0.0000000000
      2643        44  DOPC      C213          -17.1629939540      -14.3184513808        3.5486756993  MEMB      16              0.0000000000
      2644        44  DOPC      H13R          -16.8530654012      -13.9297862486        4.5422575762  MEMB      16              0.0000000000
      2645        44  DOPC      H13S          -18.1518325213      -14.8242373285        3.5751285045  MEMB      16              0.0000000000
      2646        44  DOPC      C214          -17.1525295841      -13.2727760484        2.4576669153  MEMB      16              0.0000000000
      2647        44  DOPC      H14R          -17.3359437488      -13.7804979503        1.4866367688  MEMB      16              0.0000000000
      2648        44  DOPC      H14S          -16.2501492420      -12.6350967882        2.3419265168  MEMB      16              0.0000000000
      2649        44  DOPC      C215          -18.3540557523      -12.2919493012        2.5416892342  MEMB      16              0.0000000000
      2650        44  DOPC      H15R          -17.9885657796      -11.4806644586        3.2069384188  MEMB      16              0.0000000000
      2651        44  DOPC      H15S          -19.2076792378      -12.7393823988        3.0943664937  MEMB      16              0.0000000000
      2652        44  DOPC      C216          -18.8223731532      -11.7076921892        1.1561970436  MEMB      16              0.0000000000
      2653        44  DOPC      H16R          -19.8774835619      -11.3786990650        1.2694527266  MEMB      16              0.0000000000
      2654        44  DOPC      H16S          -18.9330792568      -12.5844121414        0.4828275839  MEMB      16              0.0000000000
      2655        44  DOPC      C217          -18.0314118254      -10.5565342357        0.5286260508  MEMB      16              0.0000000000
      2656        44  DOPC      H17R          -17.8996559881       -9.8398048134        1.3672319943  MEMB      16              0.0000000000
      2657        44  DOPC      H17S          -18.5680488218      -10.1102366072       -0.3357585436  MEMB      16              0.0000000000
      2658        44  DOPC      C218          -16.6572930662      -10.8203604311       -0.0045722330  MEMB      16              0.0000000000
      2659        44  DOPC      H18R          -16.2087899881       -9.8796921793       -0.3896817174  MEMB      16              0.0000000000
      2660        44  DOPC      H18S          -16.8305146751      -11.5757386392       -0.8006367369  MEMB      16              0.0000000000
      2661        44  DOPC      H18T          -16.1502245525      -11.3705817523        0.8166824497  MEMB      16              0.0000000000
      2662        44  DOPC      C33           -18.1819136907      -15.5586987585        9.7730900921  MEMB      16              0.0000000000
      2663        44  DOPC      H3X           -19.0315416132      -15.8882047956       10.4086052196  MEMB      16              0.0000000000
      2664        44  DOPC      H3Y           -18.1952606329      -15.9377751198        8.7288474971  MEMB      16              0.0000000000
      2665        44  DOPC      C34           -18.2798146968      -14.0097129113        9.6453913661  MEMB      16              0.0000000000
      2666        44  DOPC      H4X           -18.2911669197      -13.5073553704       10.6362636886  MEMB      16              0.0000000000
      2667        44  DOPC      H4Y           -19.2562255069      -13.8873133392        9.1296764229  MEMB      16              0.0000000000
      2668        44  DOPC      C35           -17.2751314562      -13.3168106418        8.7458395395  MEMB      16              0.0000000000
      2669        44  DOPC      H5X           -17.6917441895      -12.3352309235        8.4339805967  MEMB      16              0.0000000000
      2670        44  DOPC      H5Y           -17.2198613297      -13.9420716479        7.8291534358  MEMB      16              0.0000000000
      2671        44  DOPC      C36           -15.8818663913      -13.0058373244        9.2678986509  MEMB      16              0.0000000000
      2672        44  DOPC      H6X           -15.7685448588      -12.7110242334       10.3330581390  MEMB      16              0.0000000000
      2673        44  DOPC      H6Y           -15.2143419849      -13.8571553420        9.0149369579  MEMB      16              0.0000000000
      2674        44  DOPC      C37           -15.4035857526      -11.7452564697        8.4745142603  MEMB      16              0.0000000000
      2675        44  DOPC      H7X           -16.0677633014      -10.8640118230        8.6033426660  MEMB      16              0.0000000000
      2676        44  DOPC      H7Y           -14.4810135288      -11.4653337265        9.0266240132  MEMB      16              0.0000000000
      2677        44  DOPC      C38           -15.1904738372      -11.9765104886        6.9776486012  MEMB      16              0.0000000000
      2678        44  DOPC      H8X           -16.1036374232      -12.3679291797        6.4804116802  MEMB      16              0.0000000000
      2679        44  DOPC      H8Y           -14.6430633303      -12.9264059328        6.7977568170  MEMB      16              0.0000000000
      2680        44  DOPC      C39           -14.7551884382      -10.7578727231        6.1883599777  MEMB      16              0.0000000000
      2681        44  DOPC      H9X           -15.5000552852       -9.9678074110        6.3643432293  MEMB      16              0.0000000000
      2682        44  DOPC      C310          -13.6697303072      -10.5162581723        5.4170424196  MEMB      16              0.0000000000
      2683        44  DOPC      H10X          -13.5671160855       -9.5153702813        4.9724142131  MEMB      16              0.0000000000
      2684        44  DOPC      C311          -12.5236541373      -11.4889619642        5.1134520011  MEMB      16              0.0000000000
      2685        44  DOPC      H11X          -12.6846288396      -12.3669886122        5.7748726574  MEMB      16              0.0000000000
      2686        44  DOPC      H11Y          -11.5245977885      -11.0137626129        5.2153991673  MEMB      16              0.0000000000
      2687        44  DOPC      C312          -12.4252333629      -12.1579427682        3.6583478565  MEMB      16              0.0000000000
      2688        44  DOPC      H12X          -12.2636549819      -11.3100481728        2.9588567334  MEMB      16              0.0000000000
      2689        44  DOPC      H12Y          -13.4418440542      -12.5280747837        3.4057097636  MEMB      16              0.0000000000
      2690        44  DOPC      C313          -11.3031987902      -13.1713369445        3.6039169353  MEMB      16              0.0000000000
      2691        44  DOPC      H13X          -10.3615963811      -12.6274605256        3.8317428941  MEMB      16              0.0000000000
      2692        44  DOPC      H13Y          -11.4597686378      -14.0284911378        4.2931870770  MEMB      16              0.0000000000
      2693        44  DOPC      C314          -11.1035714576      -13.8242079404        2.2555052926  MEMB      16              0.0000000000
      2694        44  DOPC      H14X          -11.3599308222      -13.0448051516        1.5064185620  MEMB      16              0.0000000000
      2695        44  DOPC      H14Y          -10.0402036945      -14.0200165528        2.0001058958  MEMB      16              0.0000000000
      2696        44  DOPC      C315          -11.9608952795      -15.1100376235        2.1302444487  MEMB      16              0.0000000000
      2697        44  DOPC      H15X          -12.7928584168      -15.0704097264        2.8654919719  MEMB      16              0.0000000000
      2698        44  DOPC      H15Y          -11.4574248201      -15.9947235892        2.5754072223  MEMB      16              0.0000000000
      2699        44  DOPC      C316          -12.4075478984      -15.2472896471        0.7071302661  MEMB      16              0.0000000000
      2700        44  DOPC      H16X          -13.1952312148      -14.4741145044        0.5803411652  MEMB      16              0.0000000000
      2701        44  DOPC      H16Y          -11.5729483041      -15.2192443533       -0.0256566735  MEMB      16              0.0000000000
      2702        44  DOPC      C317          -13.0700332779      -16.6370948105        0.4521227500  MEMB      16              0.0000000000
      2703        44  DOPC      H17X          -12.3513087968      -17.4805101707        0.3720787819  MEMB      16              0.0000000000
      2704        44  DOPC      H17Y          -13.7922855675      -16.9107892650        1.2507243862  MEMB      16              0.0000000000
      2705        44  DOPC      C318          -13.7852184263      -16.6163523148       -0.9238432282  MEMB      16              0.0000000000
      2706        44  DOPC      H18X          -13.9716414202      -17.6465197249       -1.2957599910  MEMB      16              0.0000000000
      2707        44  DOPC      H18Y          -14.8049191309      -16.1830426944       -0.8415386595  MEMB      16              0.0000000000
      2708        44  DOPC      H18Z          -13.2752942276      -15.9508100337       -1.6527822556  MEMB      16              0.0000000000
      2709        45  DOPC      N              20.7676175777        4.6047715698       20.8447176052  MEMB      17              0.0000000000
      2710        45  DOPC      C12            19.4874200399        4.9042701772       20.0697360696  MEMB      17              0.0000000000
      2711        45  DOPC      H12A           18.7649059220        4.8039731520       20.8661742129  MEMB      17              0.0000000000
      2712        45  DOPC      H12B           19.2812879943        4.1421683003       19.3327758798  MEMB      17              0.0000000000
      2713        45  DOPC      C13            21.1445812366        5.7435813501       21.7852926690  MEMB      17              0.0000000000
      2714        45  DOPC      H13A           21.1840580451        6.6340501708       21.1754508408  MEMB      17              0.0000000000
      2715        45  DOPC      H13B           20.3610516004        5.6830330859       22.5261131963  MEMB      17              0.0000000000
      2716        45  DOPC      H13C           22.1005327534        5.6048212193       22.2683062862  MEMB      17              0.0000000000
      2717        45  DOPC      C14            21.8043717686        4.2983664257       19.8219948940  MEMB      17              0.0000000000
      2718        45  DOPC      H14A           21.9111142896        5.1519685345       19.1690251793  MEMB      17              0.0000000000
      2719        45  DOPC      H14B           22.7506342757        4.0589623374       20.2842427447  MEMB      17              0.0000000000
      2720        45  DOPC      H14C           21.5633880465        3.3670920482       19.3310214754  MEMB      17              0.0000000000
      2721        45  DOPC      C15            20.4765385409        3.3840982332       21.6947209797  MEMB      17              0.0000000000
      2722        45  DOPC      H15A           19.8114164688        2.7875962347       21.0879276738  MEMB      17              0.0000000000
      2723        45  DOPC      H15B           20.0725211089        3.6043086653       22.6717966833  MEMB      17              0.0000000000
      2724        45  DOPC      H15C           21.4230478806        2.8640331234       21.6874870762  MEMB      17              0.0000000000
      2725        45  DOPC      C11            19.2898822425        6.2822675747       19.4220941094  MEMB      17              0.0000000000
      2726        45  DOPC      H11A           18.2564745228        6.5307434096       19.0985986366  MEMB      17              0.0000000000
      2727        45  DOPC      H11B           19.4419780726        7.0272058835       20.2321895867  MEMB      17              0.0000000000
      2728        45  DOPC      P              20.2184493777        6.2640317067       17.0218551533  MEMB      17              0.0000000000
      2729        45  DOPC      O13            19.3373701990        7.2192671848       16.2720921713  MEMB      17              0.0000000000
      2730        45  DOPC      O14            19.8120286468        4.7742404712       16.9852789788  MEMB      17              0.0000000000
      2731        45  DOPC      O12            20.3126274643        6.7499353742       18.5272957023  MEMB      17              0.0000000000
      2732        45  DOPC      O11            21.6748805032        6.3963126043       16.5549216679  MEMB      17              0.0000000000
      2733        45  DOPC      C1             22.3449160920        7.6532013605       16.4545907977  MEMB      17              0.0000000000
      2734        45  DOPC      HA             23.0496938505        7.7316847502       17.3098392614  MEMB      17              0.0000000000
      2735        45  DOPC      HB             21.6127318762        8.4885787606       16.4353060562  MEMB      17              0.0000000000
      2736        45  DOPC      C2             23.1482005277        7.6621875737       15.0885758193  MEMB      17              0.0000000000
      2737        45  DOPC      HS             23.5957717214        8.6772290293       15.0278109650  MEMB      17              0.0000000000
      2738        45  DOPC      O21            22.3015968578        7.3272128821       13.9633987456  MEMB      17              0.0000000000
      2739        45  DOPC      C21            22.6964834970        7.7919335564       12.7407414498  MEMB      17              0.0000000000
      2740        45  DOPC      O22            23.7193613038        8.4181462343       12.5315392076  MEMB      17              0.0000000000
      2741        45  DOPC      C22            21.6765906202        7.3182389520       11.6879993770  MEMB      17              0.0000000000
      2742        45  DOPC      H2R            22.1387866442        7.3707373064       10.6790696166  MEMB      17              0.0000000000
      2743        45  DOPC      H2S            20.8346314562        8.0422784821       11.7225329431  MEMB      17              0.0000000000
      2744        45  DOPC      C3             24.2430958247        6.5895821184       15.2040705686  MEMB      17              0.0000000000
      2745        45  DOPC      HX             24.9295030959        6.8703535587       16.0313147640  MEMB      17              0.0000000000
      2746        45  DOPC      HY             24.8195860207        6.7595144480       14.2696709758  MEMB      17              0.0000000000
      2747        45  DOPC      O31            23.7041952452        5.2857674494       15.2600005611  MEMB      17              0.0000000000
      2748        45  DOPC      C31            24.3461853890        4.3566220345       15.8611213905  MEMB      17              0.0000000000
      2749        45  DOPC      O32            25.3715294908        4.4177029201       16.5092577851  MEMB      17              0.0000000000
      2750        45  DOPC      C32            23.6106973835        3.0463891738       15.5389310705  MEMB      17              0.0000000000
      2751        45  DOPC      H2X            23.6775305686        2.4303810469       16.4610960291  MEMB      17              0.0000000000
      2752        45  DOPC      H2Y            22.5478109693        3.1330139406       15.2273394402  MEMB      17              0.0000000000
      2753        45  DOPC      C23            21.2701142532        5.8355973603       11.7836715250  MEMB      17              0.0000000000
      2754        45  DOPC      H3R            20.5777434207        5.7341111114       12.6465992133  MEMB      17              0.0000000000
      2755        45  DOPC      H3S            22.0920761547        5.1235161617       12.0109158282  MEMB      17              0.0000000000
      2756        45  DOPC      C24            20.4512011605        5.4466758255       10.5067825265  MEMB      17              0.0000000000
      2757        45  DOPC      H4R            20.2055450817        4.3646826474       10.5639209461  MEMB      17              0.0000000000
      2758        45  DOPC      H4S            21.0231933514        5.5444634538        9.5593738954  MEMB      17              0.0000000000
      2759        45  DOPC      C25            19.1602974452        6.3033687935       10.3499799929  MEMB      17              0.0000000000
      2760        45  DOPC      H5R            19.2815726880        7.4032182552       10.2502583858  MEMB      17              0.0000000000
      2761        45  DOPC      H5S            18.6090979140        6.1553851988       11.3031860349  MEMB      17              0.0000000000
      2762        45  DOPC      C26            18.2293888650        5.7398626807        9.2022024792  MEMB      17              0.0000000000
      2763        45  DOPC      H6R            17.3543706068        6.4221683380        9.2580874485  MEMB      17              0.0000000000
      2764        45  DOPC      H6S            17.9259146251        4.7018133080        9.4565215730  MEMB      17              0.0000000000
      2765        45  DOPC      C27            18.8634203769        5.8834241798        7.7936596957  MEMB      17              0.0000000000
      2766        45  DOPC      H7R            19.7873292636        5.2664292336        7.7881246780  MEMB      17              0.0000000000
      2767        45  DOPC      H7S            19.1002305621        6.9536280076        7.6122610854  MEMB      17              0.0000000000
      2768        45  DOPC      C28            17.9685001812        5.2506162794        6.6523832631  MEMB      17              0.0000000000
      2769        45  DOPC      H8R            17.2137108287        6.0420427854        6.4567876266  MEMB      17              0.0000000000
      2770        45  DOPC      H8S            17.5096417945        4.3510022936        7.1154874489  MEMB      17              0.0000000000
      2771        45  DOPC      C29            18.6555084434        4.7680796072        5.4048107529  MEMB      17              0.0000000000
      2772        45  DOPC      H9R            18.9315145412        5.6187191615        4.7643158728  MEMB      17              0.0000000000
      2773        45  DOPC      C210           18.9979192207        3.4986413568        5.0257534160  MEMB      17              0.0000000000
      2774        45  DOPC      H10R           19.2967796364        3.2868618072        3.9885306619  MEMB      17              0.0000000000
      2775        45  DOPC      C211           18.7295293797        2.2326851492        5.8198423371  MEMB      17              0.0000000000
      2776        45  DOPC      H11R           18.5024322522        1.4006052735        5.1195627853  MEMB      17              0.0000000000
      2777        45  DOPC      H11S           17.8513103080        2.3301721030        6.4933021090  MEMB      17              0.0000000000
      2778        45  DOPC      C212           20.0372082636        1.7568296339        6.5369543921  MEMB      17              0.0000000000
      2779        45  DOPC      H12R           19.8380187202        0.6967371717        6.8031290324  MEMB      17              0.0000000000
      2780        45  DOPC      H12S           20.3135193981        2.3658263640        7.4241392054  MEMB      17              0.0000000000
      2781        45  DOPC      C213           21.3023459880        1.6677204552        5.6972898330  MEMB      17              0.0000000000
      2782        45  DOPC      H13R           22.1370002726        1.2029487654        6.2644411367  MEMB      17              0.0000000000
      2783        45  DOPC      H13S           21.5989418376        2.6901981276        5.3796557024  MEMB      17              0.0000000000
      2784        45  DOPC      C214           21.1406164350        0.8703513176        4.3886100040  MEMB      17              0.0000000000
      2785        45  DOPC      H14R           20.1117791931        0.9506864636        3.9770752794  MEMB      17              0.0000000000
      2786        45  DOPC      H14S           21.2242863437       -0.1982758338        4.6807691694  MEMB      17              0.0000000000
      2787        45  DOPC      C215           22.1348869634        1.1201070429        3.2522915773  MEMB      17              0.0000000000
      2788        45  DOPC      H15R           22.0703134354        0.4414985028        2.3749998947  MEMB      17              0.0000000000
      2789        45  DOPC      H15S           23.2006526714        0.9759104887        3.5309871219  MEMB      17              0.0000000000
      2790        45  DOPC      C216           22.0408836818        2.5379705672        2.6487778862  MEMB      17              0.0000000000
      2791        45  DOPC      H16R           22.4934677216        3.4022083296        3.1803617858  MEMB      17              0.0000000000
      2792        45  DOPC      H16S           20.9520173380        2.7558345936        2.6137603763  MEMB      17              0.0000000000
      2793        45  DOPC      C217           22.5950145494        2.5539093076        1.2646241903  MEMB      17              0.0000000000
      2794        45  DOPC      H17R           21.8705244910        1.9281060355        0.7008804763  MEMB      17              0.0000000000
      2795        45  DOPC      H17S           23.6300765087        2.1508522072        1.2872674824  MEMB      17              0.0000000000
      2796        45  DOPC      C218           22.7119607920        3.9639816753        0.7932313909  MEMB      17              0.0000000000
      2797        45  DOPC      H18R           21.8256785841        4.6191900179        0.9329695465  MEMB      17              0.0000000000
      2798        45  DOPC      H18S           23.1732333221        3.8376096047       -0.2095536952  MEMB      17              0.0000000000
      2799        45  DOPC      H18T           23.4821733514        4.5251861245        1.3643202318  MEMB      17              0.0000000000
      2800        45  DOPC      C33            24.3496706027        2.4120564485       14.3390328883  MEMB      17              0.0000000000
      2801        45  DOPC      H3X            23.9009823658        1.4262634738       14.0916217918  MEMB      17              0.0000000000
      2802        45  DOPC      H3Y            25.3695153455        2.1987445143       14.7246957831  MEMB      17              0.0000000000
      2803        45  DOPC      C34            24.3553728834        3.1977851115       13.0773154400  MEMB      17              0.0000000000
      2804        45  DOPC      H4X            25.2066337823        3.9019701740       12.9598442017  MEMB      17              0.0000000000
      2805        45  DOPC      H4Y            23.3624701065        3.6686214958       12.9136742416  MEMB      17              0.0000000000
      2806        45  DOPC      C35            24.5328734384        2.2869282799       11.8391638664  MEMB      17              0.0000000000
      2807        45  DOPC      H5X            23.5805275574        1.7147973232       11.8342054825  MEMB      17              0.0000000000
      2808        45  DOPC      H5Y            25.4117127382        1.6159346686       11.9474705945  MEMB      17              0.0000000000
      2809        45  DOPC      C36            24.7963857848        3.0200794509       10.4545844940  MEMB      17              0.0000000000
      2810        45  DOPC      H6X            25.6644436546        3.6944953006       10.6157045093  MEMB      17              0.0000000000
      2811        45  DOPC      H6Y            25.0165352951        2.1898012059        9.7499613679  MEMB      17              0.0000000000
      2812        45  DOPC      C37            23.5432528398        3.6425432464        9.8015523678  MEMB      17              0.0000000000
      2813        45  DOPC      H7X            22.6150883346        3.0682169159       10.0088705186  MEMB      17              0.0000000000
      2814        45  DOPC      H7Y            23.3737430167        4.5782056719       10.3761154486  MEMB      17              0.0000000000
      2815        45  DOPC      C38            23.5173254794        3.8572408047        8.2642062307  MEMB      17              0.0000000000
      2816        45  DOPC      H8X            22.6224602361        4.4375277173        7.9530725422  MEMB      17              0.0000000000
      2817        45  DOPC      H8Y            23.4102340999        2.8040125207        7.9272156429  MEMB      17              0.0000000000
      2818        45  DOPC      C39            24.8219670917        4.3307458450        7.7489011636  MEMB      17              0.0000000000
      2819        45  DOPC      H9X            25.6687055496        3.7156925360        8.0876399012  MEMB      17              0.0000000000
      2820        45  DOPC      C310           24.9476718707        5.2945048545        6.8067380925  MEMB      17              0.0000000000
      2821        45  DOPC      H10X           25.9790880511        5.5848977956        6.5580365020  MEMB      17              0.0000000000
      2822        45  DOPC      C311           23.7553166239        5.9965401557        6.0734450066  MEMB      17              0.0000000000
      2823        45  DOPC      H11X           23.6852529695        7.0162450823        6.5088914558  MEMB      17              0.0000000000
      2824        45  DOPC      H11Y           22.7750138556        5.5440475256        6.3353191586  MEMB      17              0.0000000000
      2825        45  DOPC      C312           24.0472513856        5.9188921009        4.5146795378  MEMB      17              0.0000000000
      2826        45  DOPC      H12X           24.2872111923        4.8830870840        4.1924250055  MEMB      17              0.0000000000
      2827        45  DOPC      H12Y           24.8910317413        6.6320155794        4.3971616380  MEMB      17              0.0000000000
      2828        45  DOPC      C313           22.8628619357        6.3780902406        3.7533596251  MEMB      17              0.0000000000
      2829        45  DOPC      H13X           22.7364097341        5.6410928995        2.9316753263  MEMB      17              0.0000000000
      2830        45  DOPC      H13Y           21.9728117963        6.4116374649        4.4174430176  MEMB      17              0.0000000000
      2831        45  DOPC      C314           23.1268514708        7.8223040110        3.3280961469  MEMB      17              0.0000000000
      2832        45  DOPC      H14X           23.4031531331        8.4625621119        4.1929937449  MEMB      17              0.0000000000
      2833        45  DOPC      H14Y           23.9527314475        7.8101076291        2.5850668403  MEMB      17              0.0000000000
      2834        45  DOPC      C315           21.8444313523        8.3975972431        2.5818761832  MEMB      17              0.0000000000
      2835        45  DOPC      H15X           22.0981178725        9.4581563087        2.3693227265  MEMB      17              0.0000000000
      2836        45  DOPC      H15Y           20.9288155933        8.4785204221        3.2059111417  MEMB      17              0.0000000000
      2837        45  DOPC      C316           21.3929378078        7.9033676819        1.1699593055  MEMB      17              0.0000000000
      2838        45  DOPC      H16X           21.0686963837        6.8416524786        1.2141102384  MEMB      17              0.0000000000
      2839        45  DOPC      H16Y           20.4625361639        8.4943882884        1.0307880592  MEMB      17              0.0000000000
      2840        45  DOPC      C317           22.4600325737        8.0037524293        0.0691948785  MEMB      17              0.0000000000
      2841        45  DOPC      H17X           23.0564402384        8.9394610301        0.1245846883  MEMB      17              0.0000000000
      2842        45  DOPC      H17Y           23.1075470029        7.1427828369        0.3408137592  MEMB      17              0.0000000000
      2843        45  DOPC      C318           21.7475512573        7.7845857933       -1.2674006217  MEMB      17              0.0000000000
      2844        45  DOPC      H18X           22.4424143423        7.7161421635       -2.1315782061  MEMB      17              0.0000000000
      2845        45  DOPC      H18Y           21.2460309415        6.7933793765       -1.2849594472  MEMB      17              0.0000000000
      2846        45  DOPC      H18Z           20.9908371929        8.5870071669       -1.4009108845  MEMB      17              0.0000000000
      2847        46  DOPC      N             -21.8661833900        2.5143234966       18.7459031235  MEMB      18              0.0000000000
      2848        46  DOPC      C12           -22.5322300252        1.3355907345       17.9928932569  MEMB      18              0.0000000000
      2849        46  DOPC      H12A          -21.9701017853        1.2289454023       17.0769027988  MEMB      18              0.0000000000
      2850        46  DOPC      H12B          -23.5728426113        1.5448600818       17.7935655153  MEMB      18              0.0000000000
      2851        46  DOPC      C13           -20.3300705062        2.3695845062       18.8838960220  MEMB      18              0.0000000000
      2852        46  DOPC      H13A          -19.7539267088        2.2343993470       17.9804674034  MEMB      18              0.0000000000
      2853        46  DOPC      H13B          -19.9476770451        3.1216896091       19.5580718343  MEMB      18              0.0000000000
      2854        46  DOPC      H13C          -20.2792970145        1.4611048608       19.4656921219  MEMB      18              0.0000000000
      2855        46  DOPC      C14           -22.3797088323        2.5573075863       20.2177834466  MEMB      18              0.0000000000
      2856        46  DOPC      H14A          -21.6430440202        2.1225331217       20.8770983760  MEMB      18              0.0000000000
      2857        46  DOPC      H14B          -22.4685270109        3.6012654874       20.4798199163  MEMB      18              0.0000000000
      2858        46  DOPC      H14C          -23.3226210309        2.0328222409       20.2650233882  MEMB      18              0.0000000000
      2859        46  DOPC      C15           -22.3301463496        3.8012227232       18.1470640936  MEMB      18              0.0000000000
      2860        46  DOPC      H15A          -21.7384916904        4.5108749802       18.7062944990  MEMB      18              0.0000000000
      2861        46  DOPC      H15B          -23.3804917665        3.9994203957       18.3016358262  MEMB      18              0.0000000000
      2862        46  DOPC      H15C          -22.0190821943        3.8570088768       17.1143362022  MEMB      18              0.0000000000
      2863        46  DOPC      C11           -22.4348942455       -0.0720389075       18.6258003409  MEMB      18              0.0000000000
      2864        46  DOPC      H11A          -23.0087728107       -0.0398971463       19.5765638626  MEMB      18              0.0000000000
      2865        46  DOPC      H11B          -22.8891115481       -0.8615607703       17.9896692843  MEMB      18              0.0000000000
      2866        46  DOPC      P             -20.5728304024       -1.7937707629       19.3602568828  MEMB      18              0.0000000000
      2867        46  DOPC      O13           -21.6107994450       -2.7934852251       19.1526645234  MEMB      18              0.0000000000
      2868        46  DOPC      O14           -20.0792413597       -1.5301160082       20.7199955310  MEMB      18              0.0000000000
      2869        46  DOPC      O12           -21.0610047337       -0.3396765768       18.8609205292  MEMB      18              0.0000000000
      2870        46  DOPC      O11           -19.3983023111       -2.1007418952       18.2928222202  MEMB      18              0.0000000000
      2871        46  DOPC      C1            -18.4110577379       -1.0673592711       18.0660543704  MEMB      18              0.0000000000
      2872        46  DOPC      HA            -17.6153493338       -1.5421099853       18.6790640327  MEMB      18              0.0000000000
      2873        46  DOPC      HB            -18.7042587873       -0.0872736535       18.4993976361  MEMB      18              0.0000000000
      2874        46  DOPC      C2            -18.0870839031       -0.9522352350       16.6016956609  MEMB      18              0.0000000000
      2875        46  DOPC      HS            -17.1821228846       -0.3211351655       16.4710068221  MEMB      18              0.0000000000
      2876        46  DOPC      O21           -19.2637620500       -0.3533577652       15.9805630841  MEMB      18              0.0000000000
      2877        46  DOPC      C21           -19.1136857018        0.9069273996       15.5570663028  MEMB      18              0.0000000000
      2878        46  DOPC      O22           -18.0598338014        1.5545592076       15.6207313039  MEMB      18              0.0000000000
      2879        46  DOPC      C22           -20.4269474071        1.4460297321       15.0209995858  MEMB      18              0.0000000000
      2880        46  DOPC      H2R           -20.5422818435        2.5507230504       15.0469131969  MEMB      18              0.0000000000
      2881        46  DOPC      H2S           -21.3443983847        1.0428218935       15.5006120624  MEMB      18              0.0000000000
      2882        46  DOPC      C3            -17.7047525656       -2.2410741256       15.8490131545  MEMB      18              0.0000000000
      2883        46  DOPC      HX            -16.7967421503       -2.7041700964       16.2910315994  MEMB      18              0.0000000000
      2884        46  DOPC      HY            -17.3830405641       -2.0818447228       14.7976008923  MEMB      18              0.0000000000
      2885        46  DOPC      O31           -18.8201841647       -3.1141987135       16.0177386102  MEMB      18              0.0000000000
      2886        46  DOPC      C31           -19.3279504997       -3.6149645559       14.8609846576  MEMB      18              0.0000000000
      2887        46  DOPC      O32           -18.9188998814       -3.4064602142       13.7301304663  MEMB      18              0.0000000000
      2888        46  DOPC      C32           -20.3880609973       -4.6202406641       15.3328686126  MEMB      18              0.0000000000
      2889        46  DOPC      H2X           -20.6008835654       -5.2624422858       14.4516168635  MEMB      18              0.0000000000
      2890        46  DOPC      H2Y           -19.9935626427       -5.2758543857       16.1383884388  MEMB      18              0.0000000000
      2891        46  DOPC      C23           -20.5136996375        0.9748678297       13.5266270520  MEMB      18              0.0000000000
      2892        46  DOPC      H3R           -19.6244057342        1.3650198657       12.9869430921  MEMB      18              0.0000000000
      2893        46  DOPC      H3S           -21.5305597824        1.3168859305       13.2379409124  MEMB      18              0.0000000000
      2894        46  DOPC      C24           -20.7092102443       -0.5290466944       13.2961773370  MEMB      18              0.0000000000
      2895        46  DOPC      H4R           -21.4834118520       -0.9738387122       13.9573073468  MEMB      18              0.0000000000
      2896        46  DOPC      H4S           -19.7610537315       -0.9796295818       13.6599016954  MEMB      18              0.0000000000
      2897        46  DOPC      C25           -21.0417601166       -0.8749664440       11.8475732481  MEMB      18              0.0000000000
      2898        46  DOPC      H5R           -21.0806451340        0.0414513984       11.2206862608  MEMB      18              0.0000000000
      2899        46  DOPC      H5S           -21.9896820297       -1.4396028141       11.7173781264  MEMB      18              0.0000000000
      2900        46  DOPC      C26           -20.0018947989       -1.8289856664       11.2293587438  MEMB      18              0.0000000000
      2901        46  DOPC      H6R           -20.2219951544       -2.9015293716       11.4178441598  MEMB      18              0.0000000000
      2902        46  DOPC      H6S           -19.0249637460       -1.4950733927       11.6397604186  MEMB      18              0.0000000000
      2903        46  DOPC      C27           -19.9523843977       -1.7372362875        9.7003361273  MEMB      18              0.0000000000
      2904        46  DOPC      H7R           -19.0079461162       -2.1912771517        9.3312778254  MEMB      18              0.0000000000
      2905        46  DOPC      H7S           -19.8575076027       -0.6933687538        9.3320154024  MEMB      18              0.0000000000
      2906        46  DOPC      C28           -21.1530906249       -2.3748927437        9.0377239696  MEMB      18              0.0000000000
      2907        46  DOPC      H8R           -21.0918067559       -1.9290782257        8.0219406275  MEMB      18              0.0000000000
      2908        46  DOPC      H8S           -22.1377409186       -2.1655039477        9.5077677512  MEMB      18              0.0000000000
      2909        46  DOPC      C29           -21.2313357415       -3.9116524956        8.8708077913  MEMB      18              0.0000000000
      2910        46  DOPC      H9R           -21.5235937378       -4.5071618762        9.7482780431  MEMB      18              0.0000000000
      2911        46  DOPC      C210          -20.7667659733       -4.6337002305        7.8001164662  MEMB      18              0.0000000000
      2912        46  DOPC      H10R          -20.6830758582       -5.7305064292        7.8035808483  MEMB      18              0.0000000000
      2913        46  DOPC      C211          -20.1732126244       -3.9780659769        6.5589816615  MEMB      18              0.0000000000
      2914        46  DOPC      H11R          -19.9227979911       -2.8963562713        6.5979376328  MEMB      18              0.0000000000
      2915        46  DOPC      H11S          -20.9559268247       -4.0822751222        5.7774316174  MEMB      18              0.0000000000
      2916        46  DOPC      C212          -19.0004147556       -4.8821733903        6.1193362562  MEMB      18              0.0000000000
      2917        46  DOPC      H12R          -19.1418969043       -5.9799293870        6.0232339001  MEMB      18              0.0000000000
      2918        46  DOPC      H12S          -18.2552403726       -4.9550569492        6.9401430685  MEMB      18              0.0000000000
      2919        46  DOPC      C213          -18.4632595414       -4.3998960833        4.7899076417  MEMB      18              0.0000000000
      2920        46  DOPC      H13R          -19.3153179103       -4.0602483905        4.1630447068  MEMB      18              0.0000000000
      2921        46  DOPC      H13S          -17.8618944341       -5.1528438369        4.2369600340  MEMB      18              0.0000000000
      2922        46  DOPC      C214          -17.5952799776       -3.0920969586        4.8030697295  MEMB      18              0.0000000000
      2923        46  DOPC      H14R          -16.5635602180       -3.3259532837        5.1424606740  MEMB      18              0.0000000000
      2924        46  DOPC      H14S          -17.9176961225       -2.4500257409        5.6504847594  MEMB      18              0.0000000000
      2925        46  DOPC      C215          -17.2452640708       -2.3692377639        3.4574438936  MEMB      18              0.0000000000
      2926        46  DOPC      H15R          -18.1070856198       -1.7220470587        3.1877614176  MEMB      18              0.0000000000
      2927        46  DOPC      H15S          -17.1298457052       -3.1597317870        2.6853579744  MEMB      18              0.0000000000
      2928        46  DOPC      C216          -15.8634120127       -1.5856450315        3.4977817952  MEMB      18              0.0000000000
      2929        46  DOPC      H16R          -14.9968079798       -2.2561945474        3.6813077857  MEMB      18              0.0000000000
      2930        46  DOPC      H16S          -15.9977006371       -0.8556988107        4.3245016480  MEMB      18              0.0000000000
      2931        46  DOPC      C217          -15.5577225758       -0.7710223474        2.2279049691  MEMB      18              0.0000000000
      2932        46  DOPC      H17R          -14.6575961430       -0.1257679945        2.3158851052  MEMB      18              0.0000000000
      2933        46  DOPC      H17S          -16.4436269812       -0.1551572224        1.9629437956  MEMB      18              0.0000000000
      2934        46  DOPC      C218          -15.3673005099       -1.5805025074        0.9223194184  MEMB      18              0.0000000000
      2935        46  DOPC      H18R          -15.0690544150       -0.9775962674        0.0380827442  MEMB      18              0.0000000000
      2936        46  DOPC      H18S          -16.3061004477       -2.1408906169        0.7249848667  MEMB      18              0.0000000000
      2937        46  DOPC      H18T          -14.6893936925       -2.4554828428        1.0180919631  MEMB      18              0.0000000000
      2938        46  DOPC      C33           -21.6208304068       -3.9102342708       15.9017234011  MEMB      18              0.0000000000
      2939        46  DOPC      H3X           -21.3743921103       -3.0072748568       16.5002665032  MEMB      18              0.0000000000
      2940        46  DOPC      H3Y           -22.0547257521       -4.5406700168       16.7070844841  MEMB      18              0.0000000000
      2941        46  DOPC      C34           -22.7370215093       -3.5960914583       15.0097727388  MEMB      18              0.0000000000
      2942        46  DOPC      H4X           -23.3679642405       -4.4793480843       14.7729382145  MEMB      18              0.0000000000
      2943        46  DOPC      H4Y           -22.3370807318       -3.2334286855       14.0387711742  MEMB      18              0.0000000000
      2944        46  DOPC      C35           -23.5512912842       -2.4145650746       15.4525396778  MEMB      18              0.0000000000
      2945        46  DOPC      H5X           -22.8376634476       -1.6027008327       15.7093130791  MEMB      18              0.0000000000
      2946        46  DOPC      H5Y           -24.1378035092       -2.5199480630       16.3902064098  MEMB      18              0.0000000000
      2947        46  DOPC      C36           -24.5837563608       -1.7638681538       14.3700678430  MEMB      18              0.0000000000
      2948        46  DOPC      H6X           -23.8700774522       -1.4579996623       13.5754432073  MEMB      18              0.0000000000
      2949        46  DOPC      H6Y           -25.4334748536       -2.3976601225       14.0374914435  MEMB      18              0.0000000000
      2950        46  DOPC      C37           -25.1292228272       -0.4381133467       14.9163311011  MEMB      18              0.0000000000
      2951        46  DOPC      H7X           -25.8445588347       -0.6788971178       15.7315848570  MEMB      18              0.0000000000
      2952        46  DOPC      H7Y           -24.3273800576       -0.0491584280       15.5797187573  MEMB      18              0.0000000000
      2953        46  DOPC      C38           -25.6223834542        0.6302798129       13.9275565993  MEMB      18              0.0000000000
      2954        46  DOPC      H8X           -26.0419777169        1.4403989754       14.5615660385  MEMB      18              0.0000000000
      2955        46  DOPC      H8Y           -26.4422929111        0.1806036572       13.3276727621  MEMB      18              0.0000000000
      2956        46  DOPC      C39           -24.5284959527        1.2178796017       13.0185725377  MEMB      18              0.0000000000
      2957        46  DOPC      H9X           -23.9876783741        2.1059382852       13.3775543622  MEMB      18              0.0000000000
      2958        46  DOPC      C310          -24.3114736229        0.8448955520       11.7263336546  MEMB      18              0.0000000000
      2959        46  DOPC      H10X          -23.3930482625        1.1325973974       11.1936776463  MEMB      18              0.0000000000
      2960        46  DOPC      C311          -25.0201078256       -0.1505696580       10.9109558708  MEMB      18              0.0000000000
      2961        46  DOPC      H11X          -25.9956120531       -0.4645600872       11.3400501118  MEMB      18              0.0000000000
      2962        46  DOPC      H11Y          -24.4843171689       -1.1129444838       11.0561611492  MEMB      18              0.0000000000
      2963        46  DOPC      C312          -25.2001382507        0.3262876610        9.4289182974  MEMB      18              0.0000000000
      2964        46  DOPC      H12X          -25.3988727099        1.4163342283        9.3475269639  MEMB      18              0.0000000000
      2965        46  DOPC      H12Y          -26.0660601297       -0.2251038872        9.0041034735  MEMB      18              0.0000000000
      2966        46  DOPC      C313          -24.0299157893       -0.2322589702        8.4879282371  MEMB      18              0.0000000000
      2967        46  DOPC      H13X          -22.9996238438        0.0873106639        8.7538134855  MEMB      18              0.0000000000
      2968        46  DOPC      H13Y          -23.9384268178       -1.3391930847        8.4624829031  MEMB      18              0.0000000000
      2969        46  DOPC      C314          -24.2424390390        0.1808475235        7.0359896371  MEMB      18              0.0000000000
      2970        46  DOPC      H14X          -25.1707429254       -0.2334287172        6.5877177463  MEMB      18              0.0000000000
      2971        46  DOPC      H14Y          -24.4243167603        1.2672087252        6.8908664940  MEMB      18              0.0000000000
      2972        46  DOPC      C315          -23.0362560689       -0.4199984734        6.2210691200  MEMB      18              0.0000000000
      2973        46  DOPC      H15X          -22.8917151461       -1.4865269081        6.4966527992  MEMB      18              0.0000000000
      2974        46  DOPC      H15Y          -22.0585225240        0.0061453264        6.5321314201  MEMB      18              0.0000000000
      2975        46  DOPC      C316          -22.9623029774       -0.2997876661        4.6771129793  MEMB      18              0.0000000000
      2976        46  DOPC      H16X          -23.3120254658        0.7207103092        4.4114085153  MEMB      18              0.0000000000
      2977        46  DOPC      H16Y          -21.8917587147       -0.4303179483        4.4102458286  MEMB      18              0.0000000000
      2978        46  DOPC      C317          -23.9427323478       -1.2929140402        3.9981904699  MEMB      18              0.0000000000
      2979        46  DOPC      H17X          -23.7946259426       -2.3669459307        4.2407623422  MEMB      18              0.0000000000
      2980        46  DOPC      H17Y          -24.9776257816       -1.0488508049        4.3202926092  MEMB      18              0.0000000000
      2981        46  DOPC      C318          -23.9720329921       -1.1548706042        2.4114402057  MEMB      18              0.0000000000
      2982        46  DOPC      H18X          -24.2198345824       -0.0837179440        2.2516044824  MEMB      18              0.0000000000
      2983        46  DOPC      H18Y          -22.9861070094       -1.3032749475        1.9212885410  MEMB      18              0.0000000000
      2984        46  DOPC      H18Z          -24.7549205928       -1.7532604355        1.8982749916  MEMB      18              0.0000000000
      2985        47  DOPC      N              16.6592377928      -11.9244750278       21.3491171584  MEMB      19              0.0000000000
      2986        47  DOPC      C12            15.7068548888      -11.7728537924       20.2281522469  MEMB      19              0.0000000000
      2987        47  DOPC      H12A           14.8991571787      -11.0995067690       20.4743805267  MEMB      19              0.0000000000
      2988        47  DOPC      H12B           15.2080178241      -12.7139075190       20.0493242676  MEMB      19              0.0000000000
      2989        47  DOPC      C13            17.7250681431      -10.8814726203       21.4254454807  MEMB      19              0.0000000000
      2990        47  DOPC      H13A           17.3787342202       -9.9328699755       21.8083369870  MEMB      19              0.0000000000
      2991        47  DOPC      H13B           18.5236598916      -11.2090362087       22.0745629184  MEMB      19              0.0000000000
      2992        47  DOPC      H13C           18.2253778888      -10.6361097711       20.5003038165  MEMB      19              0.0000000000
      2993        47  DOPC      C14            17.4082695230      -13.2005561660       21.2771299964  MEMB      19              0.0000000000
      2994        47  DOPC      H14A           17.8881398470      -13.3829443715       20.3269409398  MEMB      19              0.0000000000
      2995        47  DOPC      H14B           18.1416547947      -13.0924506526       22.0625337969  MEMB      19              0.0000000000
      2996        47  DOPC      H14C           16.6312192276      -13.9205085429       21.4875140331  MEMB      19              0.0000000000
      2997        47  DOPC      C15            15.8211468229      -11.9233342692       22.6031952496  MEMB      19              0.0000000000
      2998        47  DOPC      H15A           15.2138937519      -12.8157602153       22.6381191910  MEMB      19              0.0000000000
      2999        47  DOPC      H15B           15.2287350049      -11.0332743249       22.7556471585  MEMB      19              0.0000000000
      3000        47  DOPC      H15C           16.5757872927      -11.8767062470       23.3743915135  MEMB      19              0.0000000000
      3001        47  DOPC      C11            16.1382421163      -11.3192226460       18.8259677597  MEMB      19              0.0000000000
      3002        47  DOPC      H11A           15.2227149863      -11.2501060036       18.2003847386  MEMB      19              0.0000000000
      3003        47  DOPC      H11B           16.6055760703      -10.3199982162       18.9581437611  MEMB      19              0.0000000000
      3004        47  DOPC      P              17.0798535501      -12.3956209985       16.5830422408  MEMB      19              0.0000000000
      3005        47  DOPC      O13            15.7146753830      -12.7933074662       16.0812361155  MEMB      19              0.0000000000
      3006        47  DOPC      O14            18.1925265844      -13.2746360435       16.2810205642  MEMB      19              0.0000000000
      3007        47  DOPC      O12            16.9427169158      -12.2553647714       18.2212168978  MEMB      19              0.0000000000
      3008        47  DOPC      O11            17.4533810278      -10.8988029190       16.1244762919  MEMB      19              0.0000000000
      3009        47  DOPC      C1             18.6896776649      -10.5138758569       15.5125671619  MEMB      19              0.0000000000
      3010        47  DOPC      HA             19.5934520922      -11.0927638213       15.7996240831  MEMB      19              0.0000000000
      3011        47  DOPC      HB             18.8929460324       -9.5354432514       15.9980282503  MEMB      19              0.0000000000
      3012        47  DOPC      C2             18.6289430216      -10.3266655671       13.9519186601  MEMB      19              0.0000000000
      3013        47  DOPC      HS             18.3369150092       -9.2860570841       13.6946739918  MEMB      19              0.0000000000
      3014        47  DOPC      O21            17.5943847062      -11.2491772188       13.4310348651  MEMB      19              0.0000000000
      3015        47  DOPC      C21            16.2974701414      -10.9505912419       13.5119266208  MEMB      19              0.0000000000
      3016        47  DOPC      O22            15.8288718968       -9.9433091562       14.0460827698  MEMB      19              0.0000000000
      3017        47  DOPC      C22            15.5518847078      -12.0579712919       12.7546523529  MEMB      19              0.0000000000
      3018        47  DOPC      H2R            15.8867003892      -12.9926832497       13.2531832089  MEMB      19              0.0000000000
      3019        47  DOPC      H2S            15.8064374882      -12.0905179221       11.6736968737  MEMB      19              0.0000000000
      3020        47  DOPC      C3             20.0271871556      -10.6401279469       13.2458934727  MEMB      19              0.0000000000
      3021        47  DOPC      HX             20.3688899303      -11.6890248066       13.3777102115  MEMB      19              0.0000000000
      3022        47  DOPC      HY             20.7916607653       -9.9974066302       13.7325253599  MEMB      19              0.0000000000
      3023        47  DOPC      O31            20.0391897714      -10.2070475917       11.8639140511  MEMB      19              0.0000000000
      3024        47  DOPC      C31            20.2847431738      -11.0408919941       10.8828728082  MEMB      19              0.0000000000
      3025        47  DOPC      O32            20.2790399516      -12.2675559892       10.9272727723  MEMB      19              0.0000000000
      3026        47  DOPC      C32            20.4630891143      -10.3243424692        9.4931419186  MEMB      19              0.0000000000
      3027        47  DOPC      H2X            21.4377302340       -9.7911721697        9.5043163801  MEMB      19              0.0000000000
      3028        47  DOPC      H2Y            20.5548074625      -11.1441205461        8.7489158101  MEMB      19              0.0000000000
      3029        47  DOPC      C23            14.0171041319      -11.7949023459       12.9321288287  MEMB      19              0.0000000000
      3030        47  DOPC      H3R            13.8673560789      -10.7165333508       12.7107311637  MEMB      19              0.0000000000
      3031        47  DOPC      H3S            13.7892407633      -12.0616853371       13.9862758653  MEMB      19              0.0000000000
      3032        47  DOPC      C24            13.3191477387      -12.6327339123       11.8329554674  MEMB      19              0.0000000000
      3033        47  DOPC      H4R            13.6546970289      -12.2761732019       10.8356632222  MEMB      19              0.0000000000
      3034        47  DOPC      H4S            12.2812804797      -12.2486207277       11.7349228381  MEMB      19              0.0000000000
      3035        47  DOPC      C25            13.3678151455      -14.1648978826       11.9757704472  MEMB      19              0.0000000000
      3036        47  DOPC      H5R            12.3637640677      -14.5659066185       12.2314925273  MEMB      19              0.0000000000
      3037        47  DOPC      H5S            14.0549750200      -14.3802821775       12.8217857008  MEMB      19              0.0000000000
      3038        47  DOPC      C26            13.8731026233      -14.9083463742       10.7294191383  MEMB      19              0.0000000000
      3039        47  DOPC      H6R            13.6239751869      -14.3103350126        9.8268458815  MEMB      19              0.0000000000
      3040        47  DOPC      H6S            13.3882082986      -15.9062504421       10.6712311079  MEMB      19              0.0000000000
      3041        47  DOPC      C27            15.3942017930      -14.9895580487       10.6512865053  MEMB      19              0.0000000000
      3042        47  DOPC      H7R            15.7331486194      -15.2725360031       11.6707764789  MEMB      19              0.0000000000
      3043        47  DOPC      H7S            15.6221733686      -13.9417209796       10.3607917250  MEMB      19              0.0000000000
      3044        47  DOPC      C28            15.8518119232      -16.0397064443        9.5092503342  MEMB      19              0.0000000000
      3045        47  DOPC      H8R            15.3386788090      -16.9759745699        9.8165241615  MEMB      19              0.0000000000
      3046        47  DOPC      H8S            16.9477214991      -16.1280138998        9.6689537037  MEMB      19              0.0000000000
      3047        47  DOPC      C29            15.7006458706      -15.5686811329        8.0714094499  MEMB      19              0.0000000000
      3048        47  DOPC      H9R            14.7038754114      -15.7551960901        7.6451924204  MEMB      19              0.0000000000
      3049        47  DOPC      C210           16.6172482620      -15.1198337998        7.1624196450  MEMB      19              0.0000000000
      3050        47  DOPC      H10R           16.2434683144      -14.9452619867        6.1427070617  MEMB      19              0.0000000000
      3051        47  DOPC      C211           18.1231160081      -14.9773536972        7.3718941102  MEMB      19              0.0000000000
      3052        47  DOPC      H11R           18.7376661051      -15.8894145861        7.2144324729  MEMB      19              0.0000000000
      3053        47  DOPC      H11S           18.2422540635      -14.6856358789        8.4372707560  MEMB      19              0.0000000000
      3054        47  DOPC      C212           18.9452252586      -13.9450405553        6.5560748357  MEMB      19              0.0000000000
      3055        47  DOPC      H12R           20.0008883726      -14.2908441877        6.5738620292  MEMB      19              0.0000000000
      3056        47  DOPC      H12S           18.8473809412      -12.9021309149        6.9263280726  MEMB      19              0.0000000000
      3057        47  DOPC      C213           18.4991231473      -13.8324917108        5.0860590551  MEMB      19              0.0000000000
      3058        47  DOPC      H13R           19.0581049203      -12.8940500940        4.8831113322  MEMB      19              0.0000000000
      3059        47  DOPC      H13S           17.4044409847      -13.6511226227        5.0304066415  MEMB      19              0.0000000000
      3060        47  DOPC      C214           18.9632154759      -15.0095448976        4.2684548034  MEMB      19              0.0000000000
      3061        47  DOPC      H14R           18.7345918751      -15.9779406423        4.7626833642  MEMB      19              0.0000000000
      3062        47  DOPC      H14S           20.0418607669      -14.9249351719        4.0160924263  MEMB      19              0.0000000000
      3063        47  DOPC      C215           18.1163195032      -14.9166187985        2.9847378730  MEMB      19              0.0000000000
      3064        47  DOPC      H15R           18.3495653544      -13.9432664123        2.5025525522  MEMB      19              0.0000000000
      3065        47  DOPC      H15S           17.0498339782      -14.9778976678        3.2899820746  MEMB      19              0.0000000000
      3066        47  DOPC      C216           18.2085077913      -16.1850805743        2.1263347038  MEMB      19              0.0000000000
      3067        47  DOPC      H16R           17.5844648212      -16.0681440306        1.2146238458  MEMB      19              0.0000000000
      3068        47  DOPC      H16S           17.7520136564      -17.0104694586        2.7134178505  MEMB      19              0.0000000000
      3069        47  DOPC      C217           19.6873546947      -16.6289809213        1.7338092300  MEMB      19              0.0000000000
      3070        47  DOPC      H17R           20.0500397164      -17.0399580101        2.7001818750  MEMB      19              0.0000000000
      3071        47  DOPC      H17S           20.3242710293      -15.7884927993        1.3841829336  MEMB      19              0.0000000000
      3072        47  DOPC      C218           19.7620305154      -17.6588487883        0.6680229911  MEMB      19              0.0000000000
      3073        47  DOPC      H18R           19.4192268714      -17.1243042173       -0.2436071033  MEMB      19              0.0000000000
      3074        47  DOPC      H18S           19.1990412192      -18.5897471682        0.8933932359  MEMB      19              0.0000000000
      3075        47  DOPC      H18T           20.8206437853      -17.9108222958        0.4440393654  MEMB      19              0.0000000000
      3076        47  DOPC      C33            19.3778296172       -9.3271544593        9.1960721851  MEMB      19              0.0000000000
      3077        47  DOPC      H3X            19.4135909165       -8.9771223129        8.1422604771  MEMB      19              0.0000000000
      3078        47  DOPC      H3Y            19.5661895169       -8.4369163661        9.8335024099  MEMB      19              0.0000000000
      3079        47  DOPC      C34            17.8648967221       -9.8148301397        9.3750748518  MEMB      19              0.0000000000
      3080        47  DOPC      H4X            17.3074677456       -8.9722174194        8.9129081321  MEMB      19              0.0000000000
      3081        47  DOPC      H4Y            17.6839646311       -9.6618185089       10.4605107520  MEMB      19              0.0000000000
      3082        47  DOPC      C35            17.4854191800      -11.1530242908        8.9014930995  MEMB      19              0.0000000000
      3083        47  DOPC      H5X            17.9268648778      -11.9488346305        9.5387783000  MEMB      19              0.0000000000
      3084        47  DOPC      H5Y            17.8252176002      -11.3554879384        7.8632887617  MEMB      19              0.0000000000
      3085        47  DOPC      C36            15.9713887471      -11.2758197948        8.7976354059  MEMB      19              0.0000000000
      3086        47  DOPC      H6X            15.8278349707      -12.3430511432        8.5242665094  MEMB      19              0.0000000000
      3087        47  DOPC      H6Y            15.4176503736      -11.0965602203        9.7439762577  MEMB      19              0.0000000000
      3088        47  DOPC      C37            15.1728717465      -10.3485428029        7.7948160224  MEMB      19              0.0000000000
      3089        47  DOPC      H7X            15.3023327239       -9.2721673365        8.0376678442  MEMB      19              0.0000000000
      3090        47  DOPC      H7Y            15.5352458133      -10.4606099934        6.7505715875  MEMB      19              0.0000000000
      3091        47  DOPC      C38            13.6269347058      -10.7392719856        7.7615444197  MEMB      19              0.0000000000
      3092        47  DOPC      H8X            13.1860113240      -10.1243010142        6.9480840993  MEMB      19              0.0000000000
      3093        47  DOPC      H8Y            13.2555573673      -10.3275585126        8.7242965588  MEMB      19              0.0000000000
      3094        47  DOPC      C39            13.4461346237      -12.2387200317        7.6281753166  MEMB      19              0.0000000000
      3095        47  DOPC      H9X            13.4721171643      -12.7649035234        8.5938131329  MEMB      19              0.0000000000
      3096        47  DOPC      C310           13.2329921588      -12.8996163526        6.5335067806  MEMB      19              0.0000000000
      3097        47  DOPC      H10X           13.2337670092      -13.9890415088        6.6856655406  MEMB      19              0.0000000000
      3098        47  DOPC      C311           13.1640301125      -12.3697715960        5.1461798210  MEMB      19              0.0000000000
      3099        47  DOPC      H11X           13.1116155908      -11.2600147429        5.1424994380  MEMB      19              0.0000000000
      3100        47  DOPC      H11Y           12.2458585126      -12.8128388831        4.7046211440  MEMB      19              0.0000000000
      3101        47  DOPC      C312           14.3977416343      -12.8775923229        4.3489516717  MEMB      19              0.0000000000
      3102        47  DOPC      H12X           14.3567594122      -13.9762274927        4.1888198714  MEMB      19              0.0000000000
      3103        47  DOPC      H12Y           15.2249780703      -12.5751826442        5.0261146526  MEMB      19              0.0000000000
      3104        47  DOPC      C313           14.4104919273      -12.2045416503        2.9605878194  MEMB      19              0.0000000000
      3105        47  DOPC      H13X           13.5901703310      -12.7411209017        2.4376383822  MEMB      19              0.0000000000
      3106        47  DOPC      H13Y           14.0764020778      -11.1496901592        2.8606205873  MEMB      19              0.0000000000
      3107        47  DOPC      C314           15.7440223658      -12.3929295607        2.2062126609  MEMB      19              0.0000000000
      3108        47  DOPC      H14X           16.6208327948      -12.0632509325        2.8035716624  MEMB      19              0.0000000000
      3109        47  DOPC      H14Y           15.9307001411      -13.4626146173        1.9711676854  MEMB      19              0.0000000000
      3110        47  DOPC      C315           15.8604398415      -11.5715865961        0.9345805919  MEMB      19              0.0000000000
      3111        47  DOPC      H15X           15.6264202572      -10.5175555091        1.1964472562  MEMB      19              0.0000000000
      3112        47  DOPC      H15Y           15.1242685396      -11.9381288441        0.1875728280  MEMB      19              0.0000000000
      3113        47  DOPC      C316           17.2723237378      -11.4924522814        0.3752886689  MEMB      19              0.0000000000
      3114        47  DOPC      H16X           17.9662923867      -10.8836456487        0.9934169355  MEMB      19              0.0000000000
      3115        47  DOPC      H16Y           17.6714120160      -12.5192651581        0.2313980348  MEMB      19              0.0000000000
      3116        47  DOPC      C317           17.3409977210      -10.8586443774       -1.0187576376  MEMB      19              0.0000000000
      3117        47  DOPC      H17X           18.3173885675      -11.0631296840       -1.5078071059  MEMB      19              0.0000000000
      3118        47  DOPC      H17Y           16.5140132554      -11.2351004877       -1.6580544364  MEMB      19              0.0000000000
      3119        47  DOPC      C318           17.2468159529       -9.2894679121       -0.9967238752  MEMB      19              0.0000000000
      3120        47  DOPC      H18X           16.4720793099       -8.8402803856       -0.3392014476  MEMB      19              0.0000000000
      3121        47  DOPC      H18Y           18.2885254290       -9.0396297179       -0.7022009204  MEMB      19              0.0000000000
      3122        47  DOPC      H18Z           17.0719720359       -8.9894140091       -2.0520521377  MEMB      19              0.0000000000
      3123        48  DOPC      N              -6.2249059777      -22.1320490999       17.4017718550  MEMB      20              0.0000000000
      3124        48  DOPC      C12            -7.1884055065      -22.2433098613       18.5729427742  MEMB      20              0.0000000000
      3125        48  DOPC      H12A           -6.7089502803      -22.4636242707       19.5152719697  MEMB      20              0.0000000000
      3126        48  DOPC      H12B           -7.9990746575      -22.9229402352       18.3554153921  MEMB      20              0.0000000000
      3127        48  DOPC      C13            -6.9026237841      -21.5413216626       16.1784402761  MEMB      20              0.0000000000
      3128        48  DOPC      H13A           -7.9172247191      -21.9105673520       16.2037883927  MEMB      20              0.0000000000
      3129        48  DOPC      H13B           -7.0000496245      -20.4662866298       16.2131949337  MEMB      20              0.0000000000
      3130        48  DOPC      H13C           -6.4049008813      -21.7469834714       15.2422910226  MEMB      20              0.0000000000
      3131        48  DOPC      C14            -5.7226554960      -23.4178716811       17.1335771798  MEMB      20              0.0000000000
      3132        48  DOPC      H14A           -6.4749493951      -24.1325456200       16.8340860368  MEMB      20              0.0000000000
      3133        48  DOPC      H14B           -5.0176125841      -23.4186149140       16.3154610931  MEMB      20              0.0000000000
      3134        48  DOPC      H14C           -5.3348018788      -23.9380595844       17.9969277222  MEMB      20              0.0000000000
      3135        48  DOPC      C15            -5.1644753096      -21.1308174857       17.7618435926  MEMB      20              0.0000000000
      3136        48  DOPC      H15A           -4.7756148048      -21.2092460771       18.7663516864  MEMB      20              0.0000000000
      3137        48  DOPC      H15B           -5.4534244416      -20.1020681657       17.6050530723  MEMB      20              0.0000000000
      3138        48  DOPC      H15C           -4.3136416736      -21.3897143297       17.1491001259  MEMB      20              0.0000000000
      3139        48  DOPC      C11            -8.1934310581      -21.0005037385       18.7683275552  MEMB      20              0.0000000000
      3140        48  DOPC      H11A           -8.8076876986      -20.7605655106       17.8742138261  MEMB      20              0.0000000000
      3141        48  DOPC      H11B           -8.9464885734      -21.3010151088       19.5278788858  MEMB      20              0.0000000000
      3142        48  DOPC      P              -7.0051671645      -19.7232247728       20.6799029558  MEMB      20              0.0000000000
      3143        48  DOPC      O13            -6.0093650591      -20.8035094206       20.9354807198  MEMB      20              0.0000000000
      3144        48  DOPC      O14            -8.0560829782      -19.7632051234       21.6605502016  MEMB      20              0.0000000000
      3145        48  DOPC      O12            -7.5383844470      -19.7540241228       19.1564457965  MEMB      20              0.0000000000
      3146        48  DOPC      O11            -6.3787430357      -18.2860821342       20.7507170467  MEMB      20              0.0000000000
      3147        48  DOPC      C1             -5.2799835024      -17.9766751409       19.8929919622  MEMB      20              0.0000000000
      3148        48  DOPC      HA             -4.9439736712      -18.9054826950       19.3843319790  MEMB      20              0.0000000000
      3149        48  DOPC      HB             -4.4615539524      -17.5553250848       20.5150517144  MEMB      20              0.0000000000
      3150        48  DOPC      C2             -5.5553900168      -16.9556353049       18.7321753955  MEMB      20              0.0000000000
      3151        48  DOPC      HS             -6.1258536612      -16.1086976701       19.1698845770  MEMB      20              0.0000000000
      3152        48  DOPC      O21            -6.3646573784      -17.5614501449       17.6681563762  MEMB      20              0.0000000000
      3153        48  DOPC      C21            -7.1974100703      -16.7269172161       16.9765795586  MEMB      20              0.0000000000
      3154        48  DOPC      O22            -7.0519513128      -15.5310393106       16.9009830061  MEMB      20              0.0000000000
      3155        48  DOPC      C22            -8.4154864828      -17.3820484836       16.4730333522  MEMB      20              0.0000000000
      3156        48  DOPC      H2R            -9.2785766874      -16.7103011491       16.2777088837  MEMB      20              0.0000000000
      3157        48  DOPC      H2S            -8.6609600485      -18.2702110948       17.0937031038  MEMB      20              0.0000000000
      3158        48  DOPC      C3             -4.2057267631      -16.5065953790       18.1088213596  MEMB      20              0.0000000000
      3159        48  DOPC      HX             -3.7357450125      -15.8459210164       18.8683916550  MEMB      20              0.0000000000
      3160        48  DOPC      HY             -4.3275296573      -15.7999794253       17.2601879168  MEMB      20              0.0000000000
      3161        48  DOPC      O31            -3.2257409047      -17.4934487804       17.7847475209  MEMB      20              0.0000000000
      3162        48  DOPC      C31            -3.4605452715      -18.1437855621       16.6179297902  MEMB      20              0.0000000000
      3163        48  DOPC      O32            -4.3651347875      -17.8946083239       15.8789881279  MEMB      20              0.0000000000
      3164        48  DOPC      C32            -2.5473803309      -19.3092903499       16.4604310701  MEMB      20              0.0000000000
      3165        48  DOPC      H2X            -1.4563673330      -19.1076542432       16.5183527594  MEMB      20              0.0000000000
      3166        48  DOPC      H2Y            -2.8212160454      -20.1636329727       17.1157427463  MEMB      20              0.0000000000
      3167        48  DOPC      C23            -8.1323544808      -17.9158123184       15.0745992119  MEMB      20              0.0000000000
      3168        48  DOPC      H3R            -9.0465728931      -18.5211312479       14.8953936933  MEMB      20              0.0000000000
      3169        48  DOPC      H3S            -7.2631797488      -18.6035971534       14.9983865306  MEMB      20              0.0000000000
      3170        48  DOPC      C24            -8.0282444001      -16.8057544509       14.0034953093  MEMB      20              0.0000000000
      3171        48  DOPC      H4R            -7.0955835288      -16.2072695460       14.0827435756  MEMB      20              0.0000000000
      3172        48  DOPC      H4S            -8.8663495272      -16.1008937251       14.1907717530  MEMB      20              0.0000000000
      3173        48  DOPC      C25            -8.3990139425      -17.3973381324       12.6278483199  MEMB      20              0.0000000000
      3174        48  DOPC      H5R            -9.4385899623      -17.7704472090       12.7478178782  MEMB      20              0.0000000000
      3175        48  DOPC      H5S            -7.6512581773      -18.1606541800       12.3236595454  MEMB      20              0.0000000000
      3176        48  DOPC      C26            -8.5091896166      -16.4356528440       11.4115204216  MEMB      20              0.0000000000
      3177        48  DOPC      H6R            -8.8747244743      -15.5067351515       11.8991855399  MEMB      20              0.0000000000
      3178        48  DOPC      H6S            -9.0427403434      -16.7966992276       10.5063736892  MEMB      20              0.0000000000
      3179        48  DOPC      C27            -7.1379395982      -15.8919461279       10.9989403667  MEMB      20              0.0000000000
      3180        48  DOPC      H7R            -6.5692887876      -15.4109966460       11.8233463742  MEMB      20              0.0000000000
      3181        48  DOPC      H7S            -7.1535123310      -15.1019345376       10.2179413409  MEMB      20              0.0000000000
      3182        48  DOPC      C28            -6.2018819624      -16.9882245904       10.5758219238  MEMB      20              0.0000000000
      3183        48  DOPC      H8R            -5.7672112843      -17.6077096379       11.3892217344  MEMB      20              0.0000000000
      3184        48  DOPC      H8S            -5.3683180205      -16.4513793131       10.0745330956  MEMB      20              0.0000000000
      3185        48  DOPC      C29            -6.8048602074      -17.9312049945        9.5602005247  MEMB      20              0.0000000000
      3186        48  DOPC      H9R            -7.3423949276      -18.8109294363        9.9437899858  MEMB      20              0.0000000000
      3187        48  DOPC      C210           -6.8092785494      -17.8081175888        8.2293553845  MEMB      20              0.0000000000
      3188        48  DOPC      H10R           -7.4742190198      -18.5062996295        7.6998304417  MEMB      20              0.0000000000
      3189        48  DOPC      C211           -6.2027259816      -16.7841455911        7.3096380766  MEMB      20              0.0000000000
      3190        48  DOPC      H11R           -5.8686484629      -15.8974615379        7.8897283682  MEMB      20              0.0000000000
      3191        48  DOPC      H11S           -7.0045616518      -16.4968553419        6.5963049475  MEMB      20              0.0000000000
      3192        48  DOPC      C212           -4.9564206288      -17.1708993680        6.4921570865  MEMB      20              0.0000000000
      3193        48  DOPC      H12R           -4.1963231276      -17.5839799876        7.1892487523  MEMB      20              0.0000000000
      3194        48  DOPC      H12S           -4.5746685702      -16.2167910637        6.0699437921  MEMB      20              0.0000000000
      3195        48  DOPC      C213           -5.1091071116      -18.1238646328        5.2958130421  MEMB      20              0.0000000000
      3196        48  DOPC      H13R           -5.4693545671      -19.1180813512        5.6365117261  MEMB      20              0.0000000000
      3197        48  DOPC      H13S           -4.0470080741      -18.3441974222        5.0555630783  MEMB      20              0.0000000000
      3198        48  DOPC      C214           -5.8946731887      -17.5226292781        4.1053194561  MEMB      20              0.0000000000
      3199        48  DOPC      H14R           -5.3866905932      -16.5870055963        3.7876991499  MEMB      20              0.0000000000
      3200        48  DOPC      H14S           -6.8998786521      -17.1456179574        4.3912307424  MEMB      20              0.0000000000
      3201        48  DOPC      C215           -5.8589319749      -18.5531980212        3.0135792514  MEMB      20              0.0000000000
      3202        48  DOPC      H15R           -6.5448666900      -18.1950080082        2.2163860496  MEMB      20              0.0000000000
      3203        48  DOPC      H15S           -6.2259833683      -19.5106396633        3.4412457335  MEMB      20              0.0000000000
      3204        48  DOPC      C216           -4.5093993507      -18.7502412110        2.3159609457  MEMB      20              0.0000000000
      3205        48  DOPC      H16R           -3.8836350077      -19.3908226722        2.9735291829  MEMB      20              0.0000000000
      3206        48  DOPC      H16S           -3.8697818749      -17.8728966634        2.0804262551  MEMB      20              0.0000000000
      3207        48  DOPC      C217           -4.6207091377      -19.4068543789        0.8914026155  MEMB      20              0.0000000000
      3208        48  DOPC      H17R           -5.3889924885      -18.8255498445        0.3380978382  MEMB      20              0.0000000000
      3209        48  DOPC      H17S           -4.9663404259      -20.4608239672        0.9547099142  MEMB      20              0.0000000000
      3210        48  DOPC      C218           -3.2595481774      -19.5111059352        0.1698683483  MEMB      20              0.0000000000
      3211        48  DOPC      H18R           -3.2707072805      -20.1058584701       -0.7684628306  MEMB      20              0.0000000000
      3212        48  DOPC      H18S           -2.5815293148      -20.0797072320        0.8416597530  MEMB      20              0.0000000000
      3213        48  DOPC      H18T           -2.8098531159      -18.5171330066       -0.0401617160  MEMB      20              0.0000000000
      3214        48  DOPC      C33            -2.8081633045      -19.9545101490       15.0522541116  MEMB      20              0.0000000000
      3215        48  DOPC      H3X            -2.6653436433      -19.1571708331       14.2918766864  MEMB      20              0.0000000000
      3216        48  DOPC      H3Y            -3.8589338556      -20.3082052807       14.9808254137  MEMB      20              0.0000000000
      3217        48  DOPC      C34            -1.9650826725      -21.1783587583       14.7512884912  MEMB      20              0.0000000000
      3218        48  DOPC      H4X            -2.0789566584      -22.0108142365       15.4781800504  MEMB      20              0.0000000000
      3219        48  DOPC      H4Y            -0.9037838146      -20.9004372621       14.5760019578  MEMB      20              0.0000000000
      3220        48  DOPC      C35            -2.3591727747      -21.7831555444       13.3758187618  MEMB      20              0.0000000000
      3221        48  DOPC      H5X            -3.2614042953      -22.4301165325       13.3340968334  MEMB      20              0.0000000000
      3222        48  DOPC      H5Y            -1.4219674973      -22.2610638791       13.0186485622  MEMB      20              0.0000000000
      3223        48  DOPC      C36            -2.5961793470      -20.7932395976       12.2099482854  MEMB      20              0.0000000000
      3224        48  DOPC      H6X            -3.5939135751      -20.3133037743       12.3021921575  MEMB      20              0.0000000000
      3225        48  DOPC      H6Y            -1.7124813198      -20.1225340077       12.2695547906  MEMB      20              0.0000000000
      3226        48  DOPC      C37            -2.5050412918      -21.4314717806       10.8577838510  MEMB      20              0.0000000000
      3227        48  DOPC      H7X            -1.6993443549      -22.1926989845       10.7822423455  MEMB      20              0.0000000000
      3228        48  DOPC      H7Y            -3.4335643742      -22.0097159796       10.6633629383  MEMB      20              0.0000000000
      3229        48  DOPC      C38            -2.4117668099      -20.3732857904        9.7128511666  MEMB      20              0.0000000000
      3230        48  DOPC      H8X            -1.6807795802      -19.6160597740       10.0686428666  MEMB      20              0.0000000000
      3231        48  DOPC      H8Y            -3.3113874641      -19.7294004620        9.6107952047  MEMB      20              0.0000000000
      3232        48  DOPC      C39            -2.0499623945      -20.9060619420        8.3033620705  MEMB      20              0.0000000000
      3233        48  DOPC      H9X            -1.2032700199      -20.4374839397        7.7803452548  MEMB      20              0.0000000000
      3234        48  DOPC      C310           -2.6458643198      -21.9216800387        7.6002798335  MEMB      20              0.0000000000
      3235        48  DOPC      H10X           -2.1462988284      -22.1791768712        6.6546961975  MEMB      20              0.0000000000
      3236        48  DOPC      C311           -3.8374845743      -22.5702637452        8.1924692375  MEMB      20              0.0000000000
      3237        48  DOPC      H11X           -4.5931383112      -22.1225010995        8.8727763038  MEMB      20              0.0000000000
      3238        48  DOPC      H11Y           -3.5683383684      -23.4873118197        8.7589533389  MEMB      20              0.0000000000
      3239        48  DOPC      C312           -4.7120372934      -23.0551744602        6.9409196764  MEMB      20              0.0000000000
      3240        48  DOPC      H12X           -5.4588962403      -23.8014082735        7.2868358836  MEMB      20              0.0000000000
      3241        48  DOPC      H12Y           -4.0707354085      -23.5853961161        6.2047689279  MEMB      20              0.0000000000
      3242        48  DOPC      C313           -5.3231639957      -21.8605672429        6.1844510895  MEMB      20              0.0000000000
      3243        48  DOPC      H13X           -5.7500816480      -21.2657989049        7.0201015195  MEMB      20              0.0000000000
      3244        48  DOPC      H13Y           -4.5024847462      -21.2865119958        5.7035487442  MEMB      20              0.0000000000
      3245        48  DOPC      C314           -6.4613220334      -22.3154645457        5.2425869584  MEMB      20              0.0000000000
      3246        48  DOPC      H14X           -7.0893796066      -23.0454136214        5.7966976380  MEMB      20              0.0000000000
      3247        48  DOPC      H14Y           -7.1130416137      -21.4536622770        4.9839761579  MEMB      20              0.0000000000
      3248        48  DOPC      C315           -6.1608803935      -23.0126882999        3.9397439235  MEMB      20              0.0000000000
      3249        48  DOPC      H15X           -6.8844125692      -22.8741625452        3.1080996708  MEMB      20              0.0000000000
      3250        48  DOPC      H15Y           -6.1831415119      -24.1221548956        3.9936818441  MEMB      20              0.0000000000
      3251        48  DOPC      C316           -4.6891521800      -22.7532583287        3.3897065429  MEMB      20              0.0000000000
      3252        48  DOPC      H16X           -4.5395385194      -21.6901169573        3.6754818183  MEMB      20              0.0000000000
      3253        48  DOPC      H16Y           -4.0038717115      -23.3074546857        4.0661524792  MEMB      20              0.0000000000
      3254        48  DOPC      C317           -4.4223621711      -23.2694799162        2.0038214415  MEMB      20              0.0000000000
      3255        48  DOPC      H17X           -4.7432598950      -24.3151093636        1.8088731618  MEMB      20              0.0000000000
      3256        48  DOPC      H17Y           -5.0067378051      -22.7378515169        1.2226686884  MEMB      20              0.0000000000
      3257        48  DOPC      C318           -2.9224016481      -23.1342333256        1.6700681523  MEMB      20              0.0000000000
      3258        48  DOPC      H18X           -2.8087321470      -23.3617901570        0.5885795389  MEMB      20              0.0000000000
      3259        48  DOPC      H18Y           -2.6844589308      -22.0967642499        1.9884422237  MEMB      20              0.0000000000
      3260        48  DOPC      H18Z           -2.2011370263      -23.8312301225        2.1478684830  MEMB      20              0.0000000000
      3261        49  DOPC      N              18.5691811818       12.3319336966       19.0798489373  MEMB      21              0.0000000000
      3262        49  DOPC      C12            19.9645901391       12.9126624642       19.3693374322  MEMB      21              0.0000000000
      3263        49  DOPC      H12A           20.3967501363       13.0161811008       18.3849992259  MEMB      21              0.0000000000
      3264        49  DOPC      H12B           20.5508225069       12.1909081619       19.9187028656  MEMB      21              0.0000000000
      3265        49  DOPC      C13            18.8563410375       10.9173197535       18.7353203344  MEMB      21              0.0000000000
      3266        49  DOPC      H13A           19.5205006405       10.4684219447       19.4590487627  MEMB      21              0.0000000000
      3267        49  DOPC      H13B           17.9072459568       10.4019721851       18.7293593188  MEMB      21              0.0000000000
      3268        49  DOPC      H13C           19.2998144725       10.7890673186       17.7589583551  MEMB      21              0.0000000000
      3269        49  DOPC      C14            17.9590801744       13.1591625971       17.9921290793  MEMB      21              0.0000000000
      3270        49  DOPC      H14A           17.9019899047       14.1374656914       18.4460715410  MEMB      21              0.0000000000
      3271        49  DOPC      H14B           18.5177927078       13.2587889723       17.0732630324  MEMB      21              0.0000000000
      3272        49  DOPC      H14C           16.9945520580       12.7471037071       17.7346549695  MEMB      21              0.0000000000
      3273        49  DOPC      C15            17.8067460078       12.3556283065       20.3387927893  MEMB      21              0.0000000000
      3274        49  DOPC      H15A           16.8520059336       11.9195237628       20.0844619258  MEMB      21              0.0000000000
      3275        49  DOPC      H15B           17.7372470306       13.3877092017       20.6492419484  MEMB      21              0.0000000000
      3276        49  DOPC      H15C           18.3698876591       11.7945203182       21.0698395060  MEMB      21              0.0000000000
      3277        49  DOPC      C11            20.1784517177       14.2770097644       20.1534105770  MEMB      21              0.0000000000
      3278        49  DOPC      H11A           20.0834784481       14.1144157819       21.2483371963  MEMB      21              0.0000000000
      3279        49  DOPC      H11B           21.2338002233       14.6232244384       20.1797913290  MEMB      21              0.0000000000
      3280        49  DOPC      P              19.7619284716       16.3316125519       18.6844116777  MEMB      21              0.0000000000
      3281        49  DOPC      O13            20.8099449390       15.5841930376       17.9128644312  MEMB      21              0.0000000000
      3282        49  DOPC      O14            20.1357809317       17.6720877344       19.1781597043  MEMB      21              0.0000000000
      3283        49  DOPC      O12            19.3392603890       15.3950991562       19.8789145383  MEMB      21              0.0000000000
      3284        49  DOPC      O11            18.4926881047       16.4169984402       17.6768105001  MEMB      21              0.0000000000
      3285        49  DOPC      C1             17.3782256797       17.0843454742       18.1726126593  MEMB      21              0.0000000000
      3286        49  DOPC      HA             17.5434121715       17.9240178037       18.8811216157  MEMB      21              0.0000000000
      3287        49  DOPC      HB             16.7000197234       16.3678990034       18.6835552116  MEMB      21              0.0000000000
      3288        49  DOPC      C2             16.5522211397       17.6555215114       17.0393695294  MEMB      21              0.0000000000
      3289        49  DOPC      HS             15.5697744695       17.9729659604       17.4496723034  MEMB      21              0.0000000000
      3290        49  DOPC      O21            16.3272071731       16.6726118862       16.0400977995  MEMB      21              0.0000000000
      3291        49  DOPC      C21            15.5767887271       15.6002025431       16.2729449715  MEMB      21              0.0000000000
      3292        49  DOPC      O22            14.8891020685       15.5775932168       17.2817805254  MEMB      21              0.0000000000
      3293        49  DOPC      C22            15.5041498180       14.6444641612       15.1383488053  MEMB      21              0.0000000000
      3294        49  DOPC      H2R            14.7887203489       13.8095391358       15.2976645692  MEMB      21              0.0000000000
      3295        49  DOPC      H2S            16.4802714335       14.1145382603       15.1121570904  MEMB      21              0.0000000000
      3296        49  DOPC      C3             17.2383068722       18.8666148626       16.3201457856  MEMB      21              0.0000000000
      3297        49  DOPC      HX             17.2704306526       19.5991035242       17.1548609099  MEMB      21              0.0000000000
      3298        49  DOPC      HY             16.5985207170       19.2541981619       15.4986992919  MEMB      21              0.0000000000
      3299        49  DOPC      O31            18.4956664207       18.6764147214       15.8045275600  MEMB      21              0.0000000000
      3300        49  DOPC      C31            18.7020950505       17.9297224148       14.6874586839  MEMB      21              0.0000000000
      3301        49  DOPC      O32            17.9171103872       17.5962654037       13.8114150509  MEMB      21              0.0000000000
      3302        49  DOPC      C32            20.2580329401       17.4804316715       14.7796996986  MEMB      21              0.0000000000
      3303        49  DOPC      H2X            20.9782825456       18.2750561560       14.4896419687  MEMB      21              0.0000000000
      3304        49  DOPC      H2Y            20.4292798241       17.0650140026       15.7957823994  MEMB      21              0.0000000000
      3305        49  DOPC      C23            15.1645215072       15.5249657141       13.9480624018  MEMB      21              0.0000000000
      3306        49  DOPC      H3R            15.8273078076       16.4065434481       13.8144355140  MEMB      21              0.0000000000
      3307        49  DOPC      H3S            14.1644799435       15.9967282337       14.0561272641  MEMB      21              0.0000000000
      3308        49  DOPC      C24            15.2053079874       14.8085761779       12.5014875491  MEMB      21              0.0000000000
      3309        49  DOPC      H4R            14.9073340865       13.7385821027       12.5268928118  MEMB      21              0.0000000000
      3310        49  DOPC      H4S            16.2839534582       14.7180119870       12.2512020113  MEMB      21              0.0000000000
      3311        49  DOPC      C25            14.4985796370       15.5605257359       11.3734654219  MEMB      21              0.0000000000
      3312        49  DOPC      H5R            13.8386107087       16.3094139087       11.8612444519  MEMB      21              0.0000000000
      3313        49  DOPC      H5S            13.8831215225       14.8994198232       10.7265723332  MEMB      21              0.0000000000
      3314        49  DOPC      C26            15.2531280408       16.3990506793       10.3380531100  MEMB      21              0.0000000000
      3315        49  DOPC      H6R            16.1693530726       16.7844503666       10.8343598859  MEMB      21              0.0000000000
      3316        49  DOPC      H6S            14.6774165408       17.2527717419        9.9208750729  MEMB      21              0.0000000000
      3317        49  DOPC      C27            15.5999340297       15.5565423611        9.1671547272  MEMB      21              0.0000000000
      3318        49  DOPC      H7R            16.0145551726       16.1537906115        8.3270919180  MEMB      21              0.0000000000
      3319        49  DOPC      H7S            14.6850404288       15.0584688945        8.7808730964  MEMB      21              0.0000000000
      3320        49  DOPC      C28            16.5912224449       14.4324173305        9.3456641504  MEMB      21              0.0000000000
      3321        49  DOPC      H8R            16.7959766758       13.8324369891        8.4332928060  MEMB      21              0.0000000000
      3322        49  DOPC      H8S            16.2576418495       13.7840423666       10.1839093481  MEMB      21              0.0000000000
      3323        49  DOPC      C29            17.8783446377       14.9681324127        9.6995932628  MEMB      21              0.0000000000
      3324        49  DOPC      H9R            17.9181754884       15.3342925776       10.7360972940  MEMB      21              0.0000000000
      3325        49  DOPC      C210           19.0216584073       15.0909246419        8.9334823857  MEMB      21              0.0000000000
      3326        49  DOPC      H10R           19.8168641827       15.5977855104        9.4998211174  MEMB      21              0.0000000000
      3327        49  DOPC      C211           19.2303608980       14.7282026807        7.5850318127  MEMB      21              0.0000000000
      3328        49  DOPC      H11R           19.0730172419       13.6294863312        7.6338825716  MEMB      21              0.0000000000
      3329        49  DOPC      H11S           20.3024297420       14.7097258145        7.2940889211  MEMB      21              0.0000000000
      3330        49  DOPC      C212           18.2859722742       15.2631576118        6.4762035225  MEMB      21              0.0000000000
      3331        49  DOPC      H12R           18.7023149105       16.2700235169        6.2589457387  MEMB      21              0.0000000000
      3332        49  DOPC      H12S           17.2222395491       15.3376172536        6.7880519272  MEMB      21              0.0000000000
      3333        49  DOPC      C213           18.3147533540       14.5622066598        5.1421104784  MEMB      21              0.0000000000
      3334        49  DOPC      H13R           18.1621811233       13.5015700081        5.4355260946  MEMB      21              0.0000000000
      3335        49  DOPC      H13S           19.3488856584       14.5935897243        4.7372575618  MEMB      21              0.0000000000
      3336        49  DOPC      C214           17.1200766056       14.8658460306        4.1365575080  MEMB      21              0.0000000000
      3337        49  DOPC      H14R           16.2173607068       14.5327865852        4.6919817319  MEMB      21              0.0000000000
      3338        49  DOPC      H14S           17.3082509990       14.2096943099        3.2599866202  MEMB      21              0.0000000000
      3339        49  DOPC      C215           17.3557072358       16.2280896176        3.5333152415  MEMB      21              0.0000000000
      3340        49  DOPC      H15R           18.3996205086       16.4676780031        3.2380801405  MEMB      21              0.0000000000
      3341        49  DOPC      H15S           17.1628997144       17.1115830819        4.1787495865  MEMB      21              0.0000000000
      3342        49  DOPC      C216           16.5259808049       16.4464078478        2.2631839205  MEMB      21              0.0000000000
      3343        49  DOPC      H16R           15.4781079069       16.3167042769        2.6088142016  MEMB      21              0.0000000000
      3344        49  DOPC      H16S           16.8397831274       15.7023722531        1.5001235743  MEMB      21              0.0000000000
      3345        49  DOPC      C217           16.5173782185       17.9002165342        1.7972780861  MEMB      21              0.0000000000
      3346        49  DOPC      H17R           15.9985685591       18.5921156312        2.4947255665  MEMB      21              0.0000000000
      3347        49  DOPC      H17S           15.8417516711       17.9608885338        0.9174088898  MEMB      21              0.0000000000
      3348        49  DOPC      C218           17.9426104687       18.4547955258        1.5489130186  MEMB      21              0.0000000000
      3349        49  DOPC      H18R           17.9017425402       19.5034649753        1.1842977387  MEMB      21              0.0000000000
      3350        49  DOPC      H18S           18.3146458356       17.7987787860        0.7330996346  MEMB      21              0.0000000000
      3351        49  DOPC      H18T           18.7301462970       18.3984846775        2.3305368838  MEMB      21              0.0000000000
      3352        49  DOPC      C33            20.4965449483       16.3027339915       13.8041921059  MEMB      21              0.0000000000
      3353        49  DOPC      H3X            20.0536108655       16.5739941475       12.8220777757  MEMB      21              0.0000000000
      3354        49  DOPC      H3Y            19.8520918993       15.4102250138       13.9539556094  MEMB      21              0.0000000000
      3355        49  DOPC      C34            21.9118472341       15.9214820841       13.3971266126  MEMB      21              0.0000000000
      3356        49  DOPC      H4X            21.8303345865       15.0871407658       12.6680508270  MEMB      21              0.0000000000
      3357        49  DOPC      H4Y            22.3944912807       15.4350470840       14.2716300163  MEMB      21              0.0000000000
      3358        49  DOPC      C35            22.8152793914       17.0327740128       12.8578191764  MEMB      21              0.0000000000
      3359        49  DOPC      H5X            23.8877634994       16.7484264806       12.8008502899  MEMB      21              0.0000000000
      3360        49  DOPC      H5Y            22.6756963154       17.8277757811       13.6212389606  MEMB      21              0.0000000000
      3361        49  DOPC      C36            22.3944155867       17.4173316631       11.4451001464  MEMB      21              0.0000000000
      3362        49  DOPC      H6X            22.2476525123       16.4910475668       10.8494665002  MEMB      21              0.0000000000
      3363        49  DOPC      H6Y            21.4070445597       17.9106827975       11.5716862029  MEMB      21              0.0000000000
      3364        49  DOPC      C37            23.4032343173       18.2981958310       10.8009390914  MEMB      21              0.0000000000
      3365        49  DOPC      H7X            23.2346047557       19.2072017834       11.4170506347  MEMB      21              0.0000000000
      3366        49  DOPC      H7Y            24.4259662266       17.8668408359       10.8486129909  MEMB      21              0.0000000000
      3367        49  DOPC      C38            23.0890338107       18.7348563502        9.3059865604  MEMB      21              0.0000000000
      3368        49  DOPC      H8X            22.7858810830       17.9008987607        8.6374552528  MEMB      21              0.0000000000
      3369        49  DOPC      H8Y            24.0879310128       19.0272554900        8.9173636926  MEMB      21              0.0000000000
      3370        49  DOPC      C39            22.2174464608       19.9649349014        9.1577099954  MEMB      21              0.0000000000
      3371        49  DOPC      H9X            22.5232524933       20.8771714962        9.6909143117  MEMB      21              0.0000000000
      3372        49  DOPC      C310           21.1544547854       20.1126877890        8.3727364724  MEMB      21              0.0000000000
      3373        49  DOPC      H10X           20.7410920268       21.1292433397        8.2969360558  MEMB      21              0.0000000000
      3374        49  DOPC      C311           20.4500440069       19.1752547126        7.4140297328  MEMB      21              0.0000000000
      3375        49  DOPC      H11X           19.4256262766       18.8560911569        7.7021683898  MEMB      21              0.0000000000
      3376        49  DOPC      H11Y           21.0651772289       18.2529891522        7.3408304699  MEMB      21              0.0000000000
      3377        49  DOPC      C312           20.5665841839       19.7966842688        6.0391207836  MEMB      21              0.0000000000
      3378        49  DOPC      H12X           21.4693647470       20.4314863234        5.9113122303  MEMB      21              0.0000000000
      3379        49  DOPC      H12Y           19.6625520275       20.4424675568        6.0358358398  MEMB      21              0.0000000000
      3380        49  DOPC      C313           20.5054573783       18.9206123042        4.8671793968  MEMB      21              0.0000000000
      3381        49  DOPC      H13X           19.4332431482       18.6949539915        4.6834515933  MEMB      21              0.0000000000
      3382        49  DOPC      H13Y           20.8389687594       19.5784393843        4.0363040579  MEMB      21              0.0000000000
      3383        49  DOPC      C314           21.4026269537       17.6267772130        4.8775016883  MEMB      21              0.0000000000
      3384        49  DOPC      H14X           22.3725113806       17.9106876272        5.3390633876  MEMB      21              0.0000000000
      3385        49  DOPC      H14Y           20.9826008677       16.9387627279        5.6420497595  MEMB      21              0.0000000000
      3386        49  DOPC      C315           21.4508334312       16.9604521217        3.4946063170  MEMB      21              0.0000000000
      3387        49  DOPC      H15X           21.6318344835       17.7632890119        2.7482724695  MEMB      21              0.0000000000
      3388        49  DOPC      H15Y           20.4226399669       16.5735760500        3.3288771847  MEMB      21              0.0000000000
      3389        49  DOPC      C316           22.4290508938       15.7740254807        3.4022301711  MEMB      21              0.0000000000
      3390        49  DOPC      H16X           23.3477339294       16.3500841782        3.6440945332  MEMB      21              0.0000000000
      3391        49  DOPC      H16Y           22.3298618756       15.0899009114        4.2719740254  MEMB      21              0.0000000000
      3392        49  DOPC      C317           22.5386360315       15.0972363853        2.0425604160  MEMB      21              0.0000000000
      3393        49  DOPC      H17X           23.0436996357       15.7971610929        1.3430330980  MEMB      21              0.0000000000
      3394        49  DOPC      H17Y           23.1502513129       14.1852274363        2.2113422685  MEMB      21              0.0000000000
      3395        49  DOPC      C318           21.1586786182       14.6223323131        1.5533561705  MEMB      21              0.0000000000
      3396        49  DOPC      H18X           20.5225833496       15.4583317316        1.1916827509  MEMB      21              0.0000000000
      3397        49  DOPC      H18Y           21.1417787453       13.9104756396        0.7005401632  MEMB      21              0.0000000000
      3398        49  DOPC      H18Z           20.5606652972       14.2082673554        2.3931494489  MEMB      21              0.0000000000
      3399        50  DOPC      N              14.6026307571       20.6473553260       19.6144326630  MEMB      22              0.0000000000
      3400        50  DOPC      C12            14.0218323542       21.0540199733       18.2547002110  MEMB      22              0.0000000000
      3401        50  DOPC      H12A           14.7352498856       20.6241087550       17.5672325742  MEMB      22              0.0000000000
      3402        50  DOPC      H12B           14.0543821972       22.1299601694       18.1669898694  MEMB      22              0.0000000000
      3403        50  DOPC      C13            16.0553153645       21.1425483063       19.6291444429  MEMB      22              0.0000000000
      3404        50  DOPC      H13A           16.1282113890       22.1747041977       19.3197250352  MEMB      22              0.0000000000
      3405        50  DOPC      H13B           16.6188081924       21.0502438090       20.5458536114  MEMB      22              0.0000000000
      3406        50  DOPC      H13C           16.5226516884       20.6238535865       18.8051587953  MEMB      22              0.0000000000
      3407        50  DOPC      C14            14.5033168294       19.2369640178       19.7818023282  MEMB      22              0.0000000000
      3408        50  DOPC      H14A           13.4482410706       19.0569051295       19.6376003054  MEMB      22              0.0000000000
      3409        50  DOPC      H14B           15.1187996975       18.8809795110       18.9688719070  MEMB      22              0.0000000000
      3410        50  DOPC      H14C           14.9245249262       18.8503061671       20.6980335273  MEMB      22              0.0000000000
      3411        50  DOPC      C15            13.8951816007       21.2998278309       20.6849878205  MEMB      22              0.0000000000
      3412        50  DOPC      H15A           14.1615383765       22.3426309295       20.7745184868  MEMB      22              0.0000000000
      3413        50  DOPC      H15B           13.9155680519       20.7575073812       21.6187293063  MEMB      22              0.0000000000
      3414        50  DOPC      H15C           12.8378999756       21.3307733182       20.4668181697  MEMB      22              0.0000000000
      3415        50  DOPC      C11            12.5556707366       20.6043178113       17.7640547045  MEMB      22              0.0000000000
      3416        50  DOPC      H11A           12.3125509833       21.1577260452       16.8318781376  MEMB      22              0.0000000000
      3417        50  DOPC      H11B           12.5293977219       19.5335416825       17.4689798262  MEMB      22              0.0000000000
      3418        50  DOPC      P              10.5874258579       22.0151471371       18.7353984289  MEMB      22              0.0000000000
      3419        50  DOPC      O13            11.4264080239       23.0199707922       19.4237032159  MEMB      22              0.0000000000
      3420        50  DOPC      O14             9.2731994585       21.7988491785       19.2859660970  MEMB      22              0.0000000000
      3421        50  DOPC      O12            11.4366660413       20.7108283252       18.6840910660  MEMB      22              0.0000000000
      3422        50  DOPC      O11            10.5167534752       22.3701276496       17.1417190261  MEMB      22              0.0000000000
      3423        50  DOPC      C1              9.5783661172       21.5604310223       16.4666315085  MEMB      22              0.0000000000
      3424        50  DOPC      HA              8.5447058391       21.6099334573       16.8708802609  MEMB      22              0.0000000000
      3425        50  DOPC      HB              9.7855478082       20.4706423430       16.4053327300  MEMB      22              0.0000000000
      3426        50  DOPC      C2              9.4407001745       22.0823289010       14.9751261688  MEMB      22              0.0000000000
      3427        50  DOPC      HS              8.7816022106       21.2976934947       14.5458729955  MEMB      22              0.0000000000
      3428        50  DOPC      O21            10.6968765136       22.2745641807       14.2451496147  MEMB      22              0.0000000000
      3429        50  DOPC      C21            11.4382681063       21.1816705499       13.9383626701  MEMB      22              0.0000000000
      3430        50  DOPC      O22            10.9762162130       20.0643371115       14.0298901550  MEMB      22              0.0000000000
      3431        50  DOPC      C22            12.9376212630       21.5571281103       13.6229581419  MEMB      22              0.0000000000
      3432        50  DOPC      H2R            13.5334329027       21.4229601167       14.5510356005  MEMB      22              0.0000000000
      3433        50  DOPC      H2S            12.9684902125       22.6497101034       13.4238785110  MEMB      22              0.0000000000
      3434        50  DOPC      C3              8.6562341878       23.4691160002       15.0940069339  MEMB      22              0.0000000000
      3435        50  DOPC      HX              9.2126465024       24.0458223364       15.8635107877  MEMB      22              0.0000000000
      3436        50  DOPC      HY              7.6163853761       23.3808146405       15.4751086284  MEMB      22              0.0000000000
      3437        50  DOPC      O31             8.4544120738       24.1757978413       13.8195200163  MEMB      22              0.0000000000
      3438        50  DOPC      C31             9.2249242161       25.2362581953       13.4788725558  MEMB      22              0.0000000000
      3439        50  DOPC      O32            10.2408087417       25.6116830867       14.0478313891  MEMB      22              0.0000000000
      3440        50  DOPC      C32             8.5775735597       25.8729741241       12.2507450382  MEMB      22              0.0000000000
      3441        50  DOPC      H2X             8.3573229735       25.0806958673       11.5036804385  MEMB      22              0.0000000000
      3442        50  DOPC      H2Y             7.5754150708       26.2563891316       12.5388282699  MEMB      22              0.0000000000
      3443        50  DOPC      C23            13.5073144011       20.5774984434       12.5727626835  MEMB      22              0.0000000000
      3444        50  DOPC      H3R            13.6541062757       19.5215884949       12.8855356001  MEMB      22              0.0000000000
      3445        50  DOPC      H3S            14.5504022938       20.8130381180       12.2714157957  MEMB      22              0.0000000000
      3446        50  DOPC      C24            12.9659502682       20.6973455877       11.1263547213  MEMB      22              0.0000000000
      3447        50  DOPC      H4R            11.9371623848       20.2779455625       11.1219053532  MEMB      22              0.0000000000
      3448        50  DOPC      H4S            13.5557344364       20.1308100709       10.3743484576  MEMB      22              0.0000000000
      3449        50  DOPC      C25            12.8649171536       22.2309823713       10.7017840625  MEMB      22              0.0000000000
      3450        50  DOPC      H5R            13.8195812290       22.6906085617       11.0359717684  MEMB      22              0.0000000000
      3451        50  DOPC      H5S            12.1250743798       22.7879408339       11.3155845457  MEMB      22              0.0000000000
      3452        50  DOPC      C26            12.4826867676       22.4470208938        9.2421585463  MEMB      22              0.0000000000
      3453        50  DOPC      H6R            13.3757553971       22.1108489736        8.6731790491  MEMB      22              0.0000000000
      3454        50  DOPC      H6S            12.2752704611       23.5283274428        9.0935804367  MEMB      22              0.0000000000
      3455        50  DOPC      C27            11.1982046814       21.7400208104        8.7341133627  MEMB      22              0.0000000000
      3456        50  DOPC      H7R            11.1769681566       20.6630965097        9.0063354466  MEMB      22              0.0000000000
      3457        50  DOPC      H7S            11.1395932263       21.8251274935        7.6279303836  MEMB      22              0.0000000000
      3458        50  DOPC      C28            10.0196777640       22.4754785499        9.3810401619  MEMB      22              0.0000000000
      3459        50  DOPC      H8R            10.1620908839       22.2332063049       10.4559086135  MEMB      22              0.0000000000
      3460        50  DOPC      H8S             9.1315581132       21.9109771722        9.0248057813  MEMB      22              0.0000000000
      3461        50  DOPC      C29             9.8002680888       23.9384351380        9.0692151889  MEMB      22              0.0000000000
      3462        50  DOPC      H9R             9.5866076426       24.6483498228        9.8818471559  MEMB      22              0.0000000000
      3463        50  DOPC      C210            9.6217384721       24.3931435219        7.8128939376  MEMB      22              0.0000000000
      3464        50  DOPC      H10R            9.3577979928       25.4563568412        7.7133308217  MEMB      22              0.0000000000
      3465        50  DOPC      C211            9.6270129534       23.5777275963        6.4466966840  MEMB      22              0.0000000000
      3466        50  DOPC      H11R            9.5052804999       22.4831761639        6.5931870075  MEMB      22              0.0000000000
      3467        50  DOPC      H11S           10.6708077436       23.6809549319        6.0804214673  MEMB      22              0.0000000000
      3468        50  DOPC      C212            8.7919898360       24.0456456361        5.3059699715  MEMB      22              0.0000000000
      3469        50  DOPC      H12R            9.1937448802       24.8888184642        4.7043273784  MEMB      22              0.0000000000
      3470        50  DOPC      H12S            7.8108539740       24.4283854413        5.6598110292  MEMB      22              0.0000000000
      3471        50  DOPC      C213            8.3620493625       22.8186802124        4.3971231894  MEMB      22              0.0000000000
      3472        50  DOPC      H13R            7.7808408551       23.2761297024        3.5681128492  MEMB      22              0.0000000000
      3473        50  DOPC      H13S            7.6730700271       22.1824352007        4.9927916738  MEMB      22              0.0000000000
      3474        50  DOPC      C214            9.5523384538       22.0959343623        3.7330196082  MEMB      22              0.0000000000
      3475        50  DOPC      H14R           10.0429927558       21.3752645362        4.4216518952  MEMB      22              0.0000000000
      3476        50  DOPC      H14S           10.2961101127       22.8386121765        3.3730826877  MEMB      22              0.0000000000
      3477        50  DOPC      C215            9.3060623959       21.4616094322        2.3940045406  MEMB      22              0.0000000000
      3478        50  DOPC      H15R            8.6988150710       22.1379473649        1.7551461541  MEMB      22              0.0000000000
      3479        50  DOPC      H15S            8.6953196420       20.5435882057        2.5302075320  MEMB      22              0.0000000000
      3480        50  DOPC      C216           10.5622984161       21.0805611110        1.6092858113  MEMB      22              0.0000000000
      3481        50  DOPC      H16R           11.0872568958       20.3405861279        2.2505144609  MEMB      22              0.0000000000
      3482        50  DOPC      H16S           11.1267937687       22.0297894780        1.4883266957  MEMB      22              0.0000000000
      3483        50  DOPC      C217           10.2970441788       20.3520029659        0.2226609790  MEMB      22              0.0000000000
      3484        50  DOPC      H17R            9.6823253883       19.4460930925        0.4117893266  MEMB      22              0.0000000000
      3485        50  DOPC      H17S           11.2587183704       20.0419072242       -0.2392314701  MEMB      22              0.0000000000
      3486        50  DOPC      C218            9.5682375703       21.2145325687       -0.7948697292  MEMB      22              0.0000000000
      3487        50  DOPC      H18R            8.6916771456       21.6618679169       -0.2792600615  MEMB      22              0.0000000000
      3488        50  DOPC      H18S            9.2264944256       20.6217068895       -1.6701350719  MEMB      22              0.0000000000
      3489        50  DOPC      H18T           10.1982120167       22.0337940163       -1.2026250578  MEMB      22              0.0000000000
      3490        50  DOPC      C33             9.4210131427       26.9823094684       11.7090205448  MEMB      22              0.0000000000
      3491        50  DOPC      H3X            10.4813554337       26.6560095368       11.6496607535  MEMB      22              0.0000000000
      3492        50  DOPC      H3Y             9.3057039172       27.8012229499       12.4509137899  MEMB      22              0.0000000000
      3493        50  DOPC      C34             9.0044208679       27.5849540613       10.4058141717  MEMB      22              0.0000000000
      3494        50  DOPC      H4X             8.0781518551       28.1574800517       10.6261798443  MEMB      22              0.0000000000
      3495        50  DOPC      H4Y             8.6953239213       26.7850566949        9.6994544415  MEMB      22              0.0000000000
      3496        50  DOPC      C35            10.0908820664       28.3970952783        9.7027402717  MEMB      22              0.0000000000
      3497        50  DOPC      H5X            10.3395470889       29.2611171736       10.3553903178  MEMB      22              0.0000000000
      3498        50  DOPC      H5Y             9.7271887539       28.7433933973        8.7117173037  MEMB      22              0.0000000000
      3499        50  DOPC      C36            11.3923748862       27.5835078002        9.5146428918  MEMB      22              0.0000000000
      3500        50  DOPC      H6X            11.8648713337       27.5244859011       10.5184275983  MEMB      22              0.0000000000
      3501        50  DOPC      H6Y            11.0004235666       26.5909056361        9.2057148465  MEMB      22              0.0000000000
      3502        50  DOPC      C37            12.2990880053       28.2416546465        8.3813655758  MEMB      22              0.0000000000
      3503        50  DOPC      H7X            11.6958940246       28.5306505784        7.4942583401  MEMB      22              0.0000000000
      3504        50  DOPC      H7Y            12.7448181660       29.1202457717        8.8949059084  MEMB      22              0.0000000000
      3505        50  DOPC      C38            13.5199142318       27.4578078192        8.0096659399  MEMB      22              0.0000000000
      3506        50  DOPC      H8X            14.0775802245       27.2129876901        8.9388558899  MEMB      22              0.0000000000
      3507        50  DOPC      H8Y            14.1461052895       28.1498050721        7.4068850840  MEMB      22              0.0000000000
      3508        50  DOPC      C39            13.2912552235       26.0443573974        7.4096888376  MEMB      22              0.0000000000
      3509        50  DOPC      H9X            13.0195103166       25.2298512682        8.0972460503  MEMB      22              0.0000000000
      3510        50  DOPC      C310           13.4839144085       25.6998084199        6.1164257083  MEMB      22              0.0000000000
      3511        50  DOPC      H10X           13.3975509184       24.6410104326        5.8309645510  MEMB      22              0.0000000000
      3512        50  DOPC      C311           13.9502834132       26.6247058983        5.0022199759  MEMB      22              0.0000000000
      3513        50  DOPC      H11X           15.0385084668       26.8306827486        5.0897458448  MEMB      22              0.0000000000
      3514        50  DOPC      H11Y           13.4497580935       27.6018806829        5.1722927934  MEMB      22              0.0000000000
      3515        50  DOPC      C312           13.7516642567       26.2350421376        3.5140983413  MEMB      22              0.0000000000
      3516        50  DOPC      H12X           14.0297030717       25.1646149845        3.4082632294  MEMB      22              0.0000000000
      3517        50  DOPC      H12Y           14.4343471201       26.9476999145        3.0038202784  MEMB      22              0.0000000000
      3518        50  DOPC      C313           12.2406844548       26.4198067673        3.1392591146  MEMB      22              0.0000000000
      3519        50  DOPC      H13X           11.5822772307       25.6442101944        3.5856578132  MEMB      22              0.0000000000
      3520        50  DOPC      H13Y           12.0062991258       27.4904571435        3.3211716797  MEMB      22              0.0000000000
      3521        50  DOPC      C314           12.0730635711       26.0995881357        1.6152543393  MEMB      22              0.0000000000
      3522        50  DOPC      H14X           11.0515880832       26.3897518843        1.2885851073  MEMB      22              0.0000000000
      3523        50  DOPC      H14Y           12.8007811024       26.7648690751        1.1032498137  MEMB      22              0.0000000000
      3524        50  DOPC      C315           12.3354080660       24.5937111662        1.3258183489  MEMB      22              0.0000000000
      3525        50  DOPC      H15X           11.4413151694       24.1009901815        1.7641608541  MEMB      22              0.0000000000
      3526        50  DOPC      H15Y           13.2400803953       24.2247102868        1.8547099414  MEMB      22              0.0000000000
      3527        50  DOPC      C316           12.4285970518       24.2480737298       -0.2167914214  MEMB      22              0.0000000000
      3528        50  DOPC      H16X           12.3614567728       23.1506485397       -0.3763881884  MEMB      22              0.0000000000
      3529        50  DOPC      H16Y           11.5311428226       24.6841942409       -0.7053571331  MEMB      22              0.0000000000
      3530        50  DOPC      C317           13.7389070081       24.6334707047       -0.8958461733  MEMB      22              0.0000000000
      3531        50  DOPC      H17X           13.7477822355       24.2092620118       -1.9226328296  MEMB      22              0.0000000000
      3532        50  DOPC      H17Y           13.7242576813       25.7426509854       -0.9576960554  MEMB      22              0.0000000000
      3533        50  DOPC      C318           15.0572078800       24.3404415615       -0.1434918741  MEMB      22              0.0000000000
      3534        50  DOPC      H18X           15.9723008654       24.5438529521       -0.7397727468  MEMB      22              0.0000000000
      3535        50  DOPC      H18Y           15.1201911066       24.9811656567        0.7619511184  MEMB      22              0.0000000000
      3536        50  DOPC      H18Z           15.0831113917       23.2778083603        0.1797115091  MEMB      22              0.0000000000
      3537        51  DOPC      N             -18.3935975332       19.6908686029       20.2916214682  MEMB      23              0.0000000000
      3538        51  DOPC      C12           -17.2552469852       18.7208197788       20.7345462062  MEMB      23              0.0000000000
      3539        51  DOPC      H12A          -17.5495347482       18.5902320468       21.7654397193  MEMB      23              0.0000000000
      3540        51  DOPC      H12B          -16.3326500401       19.2807927845       20.6939858126  MEMB      23              0.0000000000
      3541        51  DOPC      C13           -18.2545248118       20.3711851066       18.9485053336  MEMB      23              0.0000000000
      3542        51  DOPC      H13A          -17.5443763709       21.1541369170       19.1700361099  MEMB      23              0.0000000000
      3543        51  DOPC      H13B          -17.8397489237       19.6287451637       18.2828148547  MEMB      23              0.0000000000
      3544        51  DOPC      H13C          -19.1916373821       20.6635672407       18.4982467980  MEMB      23              0.0000000000
      3545        51  DOPC      C14           -18.5183525293       20.7818892057       21.3494119439  MEMB      23              0.0000000000
      3546        51  DOPC      H14A          -17.6357670042       21.3910939881       21.2216918044  MEMB      23              0.0000000000
      3547        51  DOPC      H14B          -19.4000179436       21.3736368491       21.1521795863  MEMB      23              0.0000000000
      3548        51  DOPC      H14C          -18.5433778793       20.2522536696       22.2902944988  MEMB      23              0.0000000000
      3549        51  DOPC      C15           -19.5956450004       18.8259545554       20.3021966375  MEMB      23              0.0000000000
      3550        51  DOPC      H15A          -19.6529111031       18.1775724394       21.1640092628  MEMB      23              0.0000000000
      3551        51  DOPC      H15B          -19.6325337212       18.0955839761       19.5074651235  MEMB      23              0.0000000000
      3552        51  DOPC      H15C          -20.4621365057       19.4705292551       20.3129464227  MEMB      23              0.0000000000
      3553        51  DOPC      C11           -16.9506634841       17.3565779000       20.0032889832  MEMB      23              0.0000000000
      3554        51  DOPC      H11A          -15.9811264114       16.9607308925       20.3742662099  MEMB      23              0.0000000000
      3555        51  DOPC      H11B          -17.6335045641       16.6109473701       20.4638150335  MEMB      23              0.0000000000
      3556        51  DOPC      P             -17.0177682999       16.3441599129       17.4532015016  MEMB      23              0.0000000000
      3557        51  DOPC      O13           -18.3372561380       15.9216638399       16.9488320965  MEMB      23              0.0000000000
      3558        51  DOPC      O14           -16.1044801430       15.2958456364       18.0170579237  MEMB      23              0.0000000000
      3559        51  DOPC      O12           -17.2543672651       17.4024373445       18.6094238283  MEMB      23              0.0000000000
      3560        51  DOPC      O11           -16.2517123943       17.2379057548       16.3419140828  MEMB      23              0.0000000000
      3561        51  DOPC      C1            -16.4281448388       18.6620141421       16.3861606813  MEMB      23              0.0000000000
      3562        51  DOPC      HA            -15.5611425677       18.9991476465       15.7787325864  MEMB      23              0.0000000000
      3563        51  DOPC      HB            -16.1724419019       19.1115529432       17.3694470740  MEMB      23              0.0000000000
      3564        51  DOPC      C2            -17.6675831054       19.1638024786       15.5251709824  MEMB      23              0.0000000000
      3565        51  DOPC      HS            -18.6276293166       19.0059410986       16.0615590934  MEMB      23              0.0000000000
      3566        51  DOPC      O21           -17.6834970681       18.3795488941       14.3688029470  MEMB      23              0.0000000000
      3567        51  DOPC      C21           -18.7615654692       17.7336914566       13.9659631225  MEMB      23              0.0000000000
      3568        51  DOPC      O22           -19.8954128277       17.7733836363       14.4447677247  MEMB      23              0.0000000000
      3569        51  DOPC      C22           -18.3706858969       16.8134544934       12.8687558211  MEMB      23              0.0000000000
      3570        51  DOPC      H2R           -19.2591493916       16.5026682023       12.2785309456  MEMB      23              0.0000000000
      3571        51  DOPC      H2S           -17.9312858300       15.9219414177       13.3651961669  MEMB      23              0.0000000000
      3572        51  DOPC      C3            -17.6504197354       20.6584437583       15.1342349055  MEMB      23              0.0000000000
      3573        51  DOPC      HX            -16.5996250336       20.8485043947       14.8275942807  MEMB      23              0.0000000000
      3574        51  DOPC      HY            -17.8138865454       21.4086100791       15.9372603077  MEMB      23              0.0000000000
      3575        51  DOPC      O31           -18.4693565773       20.9545028884       14.0020671171  MEMB      23              0.0000000000
      3576        51  DOPC      C31           -19.6936285335       21.3399300423       14.2633413514  MEMB      23              0.0000000000
      3577        51  DOPC      O32           -20.1592721957       21.4196158390       15.3699001964  MEMB      23              0.0000000000
      3578        51  DOPC      C32           -20.4625922695       21.7721206932       12.9920512430  MEMB      23              0.0000000000
      3579        51  DOPC      H2X           -21.0195625567       20.8615764301       12.6838075811  MEMB      23              0.0000000000
      3580        51  DOPC      H2Y           -21.2556296393       22.5084745314       13.2434390856  MEMB      23              0.0000000000
      3581        51  DOPC      C23           -17.3575580046       17.4876433332       11.8824135749  MEMB      23              0.0000000000
      3582        51  DOPC      H3R           -16.9827105940       16.6965794518       11.1982877088  MEMB      23              0.0000000000
      3583        51  DOPC      H3S           -16.4046485056       17.8608819556       12.3148223909  MEMB      23              0.0000000000
      3584        51  DOPC      C24           -17.9409208785       18.6920099855       11.1380218930  MEMB      23              0.0000000000
      3585        51  DOPC      H4R           -18.1247776884       19.5749337052       11.7868387202  MEMB      23              0.0000000000
      3586        51  DOPC      H4S           -18.8909474281       18.4129752019       10.6341270424  MEMB      23              0.0000000000
      3587        51  DOPC      C25           -17.0527944533       19.2277614429       10.0331736159  MEMB      23              0.0000000000
      3588        51  DOPC      H5R           -16.1544155706       19.6870163423       10.4982773274  MEMB      23              0.0000000000
      3589        51  DOPC      H5S           -17.6052556789       20.0958721688        9.6142568887  MEMB      23              0.0000000000
      3590        51  DOPC      C26           -16.6749758510       18.1709607448        8.9727976272  MEMB      23              0.0000000000
      3591        51  DOPC      H6R           -16.1027711540       17.3074675660        9.3743975883  MEMB      23              0.0000000000
      3592        51  DOPC      H6S           -16.0075705228       18.5568559168        8.1728128187  MEMB      23              0.0000000000
      3593        51  DOPC      C27           -17.9063771385       17.4510865419        8.3369187218  MEMB      23              0.0000000000
      3594        51  DOPC      H7R           -18.5708918780       17.1374822515        9.1702210206  MEMB      23              0.0000000000
      3595        51  DOPC      H7S           -17.5518220866       16.6624366641        7.6393204984  MEMB      23              0.0000000000
      3596        51  DOPC      C28           -18.7585130327       18.4939146730        7.4441180774  MEMB      23              0.0000000000
      3597        51  DOPC      H8R           -18.2288068258       18.8911027416        6.5519445599  MEMB      23              0.0000000000
      3598        51  DOPC      H8S           -19.0311859735       19.3775597496        8.0598632833  MEMB      23              0.0000000000
      3599        51  DOPC      C29           -19.9904899592       17.7423501047        7.0202403078  MEMB      23              0.0000000000
      3600        51  DOPC      H9R           -20.7443492974       17.5846377411        7.8056210836  MEMB      23              0.0000000000
      3601        51  DOPC      C210          -20.3531779104       17.2104787012        5.8575467785  MEMB      23              0.0000000000
      3602        51  DOPC      H10R          -21.2812944086       16.6211251666        5.8220143233  MEMB      23              0.0000000000
      3603        51  DOPC      C211          -19.5710134277       17.1968408934        4.5935612873  MEMB      23              0.0000000000
      3604        51  DOPC      H11R          -19.6487053843       16.1724650471        4.1705493365  MEMB      23              0.0000000000
      3605        51  DOPC      H11S          -18.4939687312       17.4088849735        4.7648304248  MEMB      23              0.0000000000
      3606        51  DOPC      C212          -20.1557269893       18.0579222713        3.4503913061  MEMB      23              0.0000000000
      3607        51  DOPC      H12R          -21.2510502759       17.8837466311        3.5155862913  MEMB      23              0.0000000000
      3608        51  DOPC      H12S          -19.8440542890       17.6621614846        2.4601613618  MEMB      23              0.0000000000
      3609        51  DOPC      C213          -19.8836309486       19.5805343421        3.4739539776  MEMB      23              0.0000000000
      3610        51  DOPC      H13R          -18.8172626570       19.5346472570        3.7822952285  MEMB      23              0.0000000000
      3611        51  DOPC      H13S          -20.4796713468       19.9333735143        4.3426092736  MEMB      23              0.0000000000
      3612        51  DOPC      C214          -19.8881753471       20.3380388370        2.1073328342  MEMB      23              0.0000000000
      3613        51  DOPC      H14R          -20.8723862888       20.4271278502        1.5996784151  MEMB      23              0.0000000000
      3614        51  DOPC      H14S          -19.2641675294       19.6891110507        1.4563106665  MEMB      23              0.0000000000
      3615        51  DOPC      C215          -19.2683034110       21.6388324899        2.3074835033  MEMB      23              0.0000000000
      3616        51  DOPC      H15R          -18.2295684648       21.5270843219        2.6854544469  MEMB      23              0.0000000000
      3617        51  DOPC      H15S          -19.8566370633       22.2394783806        3.0337127613  MEMB      23              0.0000000000
      3618        51  DOPC      C216          -19.2676407047       22.5419517446        0.9750687519  MEMB      23              0.0000000000
      3619        51  DOPC      H16R          -20.1624252143       22.2206180479        0.4002416095  MEMB      23              0.0000000000
      3620        51  DOPC      H16S          -18.4519613282       22.1637172561        0.3224391797  MEMB      23              0.0000000000
      3621        51  DOPC      C217          -19.1423129598       24.0474911561        1.1799552895  MEMB      23              0.0000000000
      3622        51  DOPC      H17R          -18.9379822051       24.2455723634        2.2538903152  MEMB      23              0.0000000000
      3623        51  DOPC      H17S          -20.1409762103       24.5209840613        1.0668307876  MEMB      23              0.0000000000
      3624        51  DOPC      C218          -18.2627410156       24.8113965418        0.2377348373  MEMB      23              0.0000000000
      3625        51  DOPC      H18R          -18.6268233475       25.8598796725        0.1882488362  MEMB      23              0.0000000000
      3626        51  DOPC      H18S          -18.2767261169       24.3735188233       -0.7832398553  MEMB      23              0.0000000000
      3627        51  DOPC      H18T          -17.1791449940       24.8984672796        0.4669919681  MEMB      23              0.0000000000
      3628        51  DOPC      C33           -19.5703121494       22.3736944334       11.8892198616  MEMB      23              0.0000000000
      3629        51  DOPC      H3X           -18.9397227703       21.5583106883       11.4746992832  MEMB      23              0.0000000000
      3630        51  DOPC      H3Y           -18.9122078038       23.1233620309       12.3783196119  MEMB      23              0.0000000000
      3631        51  DOPC      C34           -20.2682870680       23.1384818636       10.7082108611  MEMB      23              0.0000000000
      3632        51  DOPC      H4X           -20.8527573330       23.9351164779       11.2162357483  MEMB      23              0.0000000000
      3633        51  DOPC      H4Y           -20.9920554629       22.5282801800       10.1267172944  MEMB      23              0.0000000000
      3634        51  DOPC      C35           -19.3887943317       23.7210440912        9.6192125142  MEMB      23              0.0000000000
      3635        51  DOPC      H5X           -18.6878254494       24.4754334038       10.0361789382  MEMB      23              0.0000000000
      3636        51  DOPC      H5Y           -20.0615751526       24.3931243418        9.0447612127  MEMB      23              0.0000000000
      3637        51  DOPC      C36           -18.8905787994       22.6336727457        8.5894259609  MEMB      23              0.0000000000
      3638        51  DOPC      H6X           -18.6508699630       21.7096348467        9.1577693621  MEMB      23              0.0000000000
      3639        51  DOPC      H6Y           -19.7078454021       22.4753619570        7.8536717352  MEMB      23              0.0000000000
      3640        51  DOPC      C37           -17.6405611917       23.0448359927        7.7255315860  MEMB      23              0.0000000000
      3641        51  DOPC      H7X           -17.8057591415       24.0758755896        7.3460735526  MEMB      23              0.0000000000
      3642        51  DOPC      H7Y           -16.7629182529       23.1221054676        8.4023570809  MEMB      23              0.0000000000
      3643        51  DOPC      C38           -17.3523339966       22.0751324310        6.6058214230  MEMB      23              0.0000000000
      3644        51  DOPC      H8X           -18.3179330227       21.7993907693        6.1305260945  MEMB      23              0.0000000000
      3645        51  DOPC      H8Y           -16.8777021769       21.1572263233        7.0138575245  MEMB      23              0.0000000000
      3646        51  DOPC      C39           -16.5349261075       22.7969781473        5.5450746798  MEMB      23              0.0000000000
      3647        51  DOPC      H9X           -16.7230460505       23.8666891733        5.3709225039  MEMB      23              0.0000000000
      3648        51  DOPC      C310          -15.5584378624       22.3010057235        4.7842860546  MEMB      23              0.0000000000
      3649        51  DOPC      H10X          -15.1913295129       23.0206024053        4.0376856471  MEMB      23              0.0000000000
      3650        51  DOPC      C311          -15.0125188913       20.9335512257        4.6546317224  MEMB      23              0.0000000000
      3651        51  DOPC      H11X          -15.7386812454       20.1847152827        5.0370637388  MEMB      23              0.0000000000
      3652        51  DOPC      H11Y          -14.1847858148       20.8237088018        5.3875123142  MEMB      23              0.0000000000
      3653        51  DOPC      C312          -14.6077775106       20.6166625145        3.1754386990  MEMB      23              0.0000000000
      3654        51  DOPC      H12X          -13.8748442942       21.3995494929        2.8852368553  MEMB      23              0.0000000000
      3655        51  DOPC      H12Y          -15.4569567079       20.6504401340        2.4598452557  MEMB      23              0.0000000000
      3656        51  DOPC      C313          -13.9396102658       19.2004629881        3.0595094460  MEMB      23              0.0000000000
      3657        51  DOPC      H13X          -13.1524706197       19.4658441539        2.3217384252  MEMB      23              0.0000000000
      3658        51  DOPC      H13Y          -13.4392693456       19.0217573767        4.0352373658  MEMB      23              0.0000000000
      3659        51  DOPC      C314          -14.8923049528       18.0882379846        2.5943323438  MEMB      23              0.0000000000
      3660        51  DOPC      H14X          -14.5070740234       17.0773685247        2.8474356689  MEMB      23              0.0000000000
      3661        51  DOPC      H14Y          -15.7439264690       18.2325499508        3.2930705537  MEMB      23              0.0000000000
      3662        51  DOPC      C315          -15.4121825712       18.2733267151        1.1572935467  MEMB      23              0.0000000000
      3663        51  DOPC      H15X          -14.6282408322       17.9528795477        0.4382186275  MEMB      23              0.0000000000
      3664        51  DOPC      H15Y          -15.5115445315       19.3694132269        1.0054939183  MEMB      23              0.0000000000
      3665        51  DOPC      C316          -16.7403403789       17.5599937318        0.7475492069  MEMB      23              0.0000000000
      3666        51  DOPC      H16X          -16.7022448130       16.4642721345        0.9271700784  MEMB      23              0.0000000000
      3667        51  DOPC      H16Y          -17.5113232379       18.0250704554        1.3984014582  MEMB      23              0.0000000000
      3668        51  DOPC      C317          -17.1095583046       17.6924586836       -0.7206976518  MEMB      23              0.0000000000
      3669        51  DOPC      H17X          -16.3287196082       17.4866000290       -1.4837392130  MEMB      23              0.0000000000
      3670        51  DOPC      H17Y          -17.9782185833       17.0142883435       -0.8615356670  MEMB      23              0.0000000000
      3671        51  DOPC      C318          -17.7626383767       18.9882998028       -1.1893096750  MEMB      23              0.0000000000
      3672        51  DOPC      H18X          -17.0084315605       19.8002787065       -1.2679449936  MEMB      23              0.0000000000
      3673        51  DOPC      H18Y          -18.2027700335       18.8597617442       -2.2012808148  MEMB      23              0.0000000000
      3674        51  DOPC      H18Z          -18.4513736612       19.4142252549       -0.4286838569  MEMB      23              0.0000000000
      3675        52  DOPC      N             -19.6442699301       -8.5538554805       21.2166479652  MEMB      24              0.0000000000
      3676        52  DOPC      C12           -20.2741846171       -7.4228737876       20.4363327930  MEMB      24              0.0000000000
      3677        52  DOPC      H12A          -20.1429827729       -6.4910374243       20.9663017586  MEMB      24              0.0000000000
      3678        52  DOPC      H12B          -21.3243192149       -7.6285442518       20.2903294118  MEMB      24              0.0000000000
      3679        52  DOPC      C13           -18.1748876932       -8.7328198971       20.9446023944  MEMB      24              0.0000000000
      3680        52  DOPC      H13A          -18.0164838578       -9.2147283578       19.9911495377  MEMB      24              0.0000000000
      3681        52  DOPC      H13B          -17.7502582371       -7.7408333938       20.9899087448  MEMB      24              0.0000000000
      3682        52  DOPC      H13C          -17.7293400873       -9.4340332672       21.6346656249  MEMB      24              0.0000000000
      3683        52  DOPC      C14           -20.3852184744       -9.7751431823       20.9758872608  MEMB      24              0.0000000000
      3684        52  DOPC      H14A          -20.0090531010      -10.5418010481       21.6370494194  MEMB      24              0.0000000000
      3685        52  DOPC      H14B          -21.4371704936       -9.6670173104       21.1952180109  MEMB      24              0.0000000000
      3686        52  DOPC      H14C          -20.3341762361      -10.2176101556       19.9920083659  MEMB      24              0.0000000000
      3687        52  DOPC      C15           -19.7984082822       -8.2996338249       22.7013028065  MEMB      24              0.0000000000
      3688        52  DOPC      H15A          -19.2585601947       -9.0744344977       23.2253715691  MEMB      24              0.0000000000
      3689        52  DOPC      H15B          -20.8129502201       -8.2837272930       23.0712374989  MEMB      24              0.0000000000
      3690        52  DOPC      H15C          -19.5071134064       -7.2828240150       22.9195804670  MEMB      24              0.0000000000
      3691        52  DOPC      C11           -19.8485805256       -7.1689126239       18.9833109133  MEMB      24              0.0000000000
      3692        52  DOPC      H11A          -20.4819426618       -6.4237359026       18.4561630090  MEMB      24              0.0000000000
      3693        52  DOPC      H11B          -18.8038918537       -6.8185468211       19.1254040914  MEMB      24              0.0000000000
      3694        52  DOPC      P             -20.1998427164       -8.3879097068       16.6975041436  MEMB      24              0.0000000000
      3695        52  DOPC      O13           -19.0993071549       -7.6489911320       15.9396026298  MEMB      24              0.0000000000
      3696        52  DOPC      O14           -21.6420492539       -7.9200700652       16.5482689886  MEMB      24              0.0000000000
      3697        52  DOPC      O12           -19.8411708156       -8.3815555411       18.2047668961  MEMB      24              0.0000000000
      3698        52  DOPC      O11           -20.2965264389       -9.9134705171       16.3517732088  MEMB      24              0.0000000000
      3699        52  DOPC      C1            -20.9198623071      -10.8758609210       17.2458299199  MEMB      24              0.0000000000
      3700        52  DOPC      HA            -22.0082297093      -10.7882613733       17.0406374475  MEMB      24              0.0000000000
      3701        52  DOPC      HB            -20.6562118457      -10.7961653286       18.3221468303  MEMB      24              0.0000000000
      3702        52  DOPC      C2            -20.5135927567      -12.3271662079       16.8557048809  MEMB      24              0.0000000000
      3703        52  DOPC      HS            -20.6277710940      -12.9820957416       17.7458461795  MEMB      24              0.0000000000
      3704        52  DOPC      O21           -19.1510428377      -12.3672397635       16.3786441902  MEMB      24              0.0000000000
      3705        52  DOPC      C21           -18.2678659483      -12.1909428104       17.3917949874  MEMB      24              0.0000000000
      3706        52  DOPC      O22           -18.5605856970      -12.1659126987       18.5710726599  MEMB      24              0.0000000000
      3707        52  DOPC      C22           -16.9067196978      -11.7457725666       16.8169784342  MEMB      24              0.0000000000
      3708        52  DOPC      H2R           -16.1377496072      -12.5011502907       17.0860704477  MEMB      24              0.0000000000
      3709        52  DOPC      H2S           -16.7942800862      -10.6826955291       17.1195439891  MEMB      24              0.0000000000
      3710        52  DOPC      C3            -21.4601274239      -12.9693624557       15.7919196474  MEMB      24              0.0000000000
      3711        52  DOPC      HX            -22.5242118170      -13.1290119661       16.0686101539  MEMB      24              0.0000000000
      3712        52  DOPC      HY            -21.0086762417      -13.9527524629       15.5400136217  MEMB      24              0.0000000000
      3713        52  DOPC      O31           -21.3894360499      -12.1565831944       14.6065992788  MEMB      24              0.0000000000
      3714        52  DOPC      C31           -22.5181743329      -12.1228489602       13.9191794571  MEMB      24              0.0000000000
      3715        52  DOPC      O32           -23.5629859002      -12.6817330060       14.1035204642  MEMB      24              0.0000000000
      3716        52  DOPC      C32           -22.2239769641      -11.1456014970       12.7983393740  MEMB      24              0.0000000000
      3717        52  DOPC      H2X           -21.3476602026      -11.5258334723       12.2310530499  MEMB      24              0.0000000000
      3718        52  DOPC      H2Y           -23.0914030227      -11.0789807652       12.1073582652  MEMB      24              0.0000000000
      3719        52  DOPC      C23           -16.8290412167      -11.6834925257       15.2243815160  MEMB      24              0.0000000000
      3720        52  DOPC      H3R           -17.2273374986      -12.5023901138       14.5879163805  MEMB      24              0.0000000000
      3721        52  DOPC      H3S           -15.7663817193      -11.6426576827       14.9028101259  MEMB      24              0.0000000000
      3722        52  DOPC      C24           -17.2523583312      -10.3444789042       14.7008950241  MEMB      24              0.0000000000
      3723        52  DOPC      H4R           -17.0286801614       -9.4955595755       15.3817951556  MEMB      24              0.0000000000
      3724        52  DOPC      H4S           -18.3630845615      -10.3509151377       14.6770881950  MEMB      24              0.0000000000
      3725        52  DOPC      C25           -16.6967827828       -9.8808954028       13.3393363682  MEMB      24              0.0000000000
      3726        52  DOPC      H5R           -15.5866193623       -9.8378387292       13.3413757862  MEMB      24              0.0000000000
      3727        52  DOPC      H5S           -17.1057769982       -8.8488678528       13.2950196679  MEMB      24              0.0000000000
      3728        52  DOPC      C26           -17.3718422154      -10.6065694243       12.1460029288  MEMB      24              0.0000000000
      3729        52  DOPC      H6R           -18.3996398596      -10.4549310210       12.5396511574  MEMB      24              0.0000000000
      3730        52  DOPC      H6S           -17.1381254010      -11.6926864247       12.1529018401  MEMB      24              0.0000000000
      3731        52  DOPC      C27           -17.0427798369       -9.9720898410       10.8391908315  MEMB      24              0.0000000000
      3732        52  DOPC      H7R           -16.0101171209      -10.2968205499       10.5892343621  MEMB      24              0.0000000000
      3733        52  DOPC      H7S           -16.9967450108       -8.8734172108       10.9976846596  MEMB      24              0.0000000000
      3734        52  DOPC      C28           -18.0040634585      -10.2812847907        9.6347108346  MEMB      24              0.0000000000
      3735        52  DOPC      H8R           -17.6287741888       -9.7840906867        8.7147777231  MEMB      24              0.0000000000
      3736        52  DOPC      H8S           -19.0183825316       -9.9657246025        9.9601333012  MEMB      24              0.0000000000
      3737        52  DOPC      C29           -17.8774898554      -11.7361006885        9.3593667127  MEMB      24              0.0000000000
      3738        52  DOPC      H9R           -16.8059684389      -11.9847614387        9.3624275905  MEMB      24              0.0000000000
      3739        52  DOPC      C210          -18.8931976796      -12.6188297235        9.1539769711  MEMB      24              0.0000000000
      3740        52  DOPC      H10R          -18.6219389978      -13.6402688212        8.8488847240  MEMB      24              0.0000000000
      3741        52  DOPC      C211          -20.3191369785      -12.1870299382        9.1850002198  MEMB      24              0.0000000000
      3742        52  DOPC      H11R          -20.5197330034      -11.4417921358        9.9841891464  MEMB      24              0.0000000000
      3743        52  DOPC      H11S          -20.9482911839      -13.0329598380        9.5355547243  MEMB      24              0.0000000000
      3744        52  DOPC      C212          -20.8285830122      -11.6215205227        7.8012141274  MEMB      24              0.0000000000
      3745        52  DOPC      H12R          -20.6775965463      -12.3137479187        6.9454418641  MEMB      24              0.0000000000
      3746        52  DOPC      H12S          -20.3554165174      -10.6236966719        7.6796316685  MEMB      24              0.0000000000
      3747        52  DOPC      C213          -22.3284357662      -11.3952781532        7.9560809779  MEMB      24              0.0000000000
      3748        52  DOPC      H13R          -22.5259509358      -11.0641666977        8.9980381568  MEMB      24              0.0000000000
      3749        52  DOPC      H13S          -22.8306473070      -12.3793751043        7.8392166979  MEMB      24              0.0000000000
      3750        52  DOPC      C214          -22.8575276917      -10.3644112744        6.8868612179  MEMB      24              0.0000000000
      3751        52  DOPC      H14R          -22.1054126173       -9.5775656271        6.6643349217  MEMB      24              0.0000000000
      3752        52  DOPC      H14S          -23.7318916882       -9.9038071643        7.3944561031  MEMB      24              0.0000000000
      3753        52  DOPC      C215          -23.4838078373      -10.8569500662        5.5883256365  MEMB      24              0.0000000000
      3754        52  DOPC      H15R          -24.0012830750       -9.9558892689        5.1950956002  MEMB      24              0.0000000000
      3755        52  DOPC      H15S          -24.2241176835      -11.6596459219        5.7931225921  MEMB      24              0.0000000000
      3756        52  DOPC      C216          -22.5475531887      -11.2027606754        4.4639897035  MEMB      24              0.0000000000
      3757        52  DOPC      H16R          -21.7557109801      -11.9132824718        4.7840921596  MEMB      24              0.0000000000
      3758        52  DOPC      H16S          -21.7567286060      -10.4357420071        4.3204630302  MEMB      24              0.0000000000
      3759        52  DOPC      C217          -23.2202952184      -11.5209263841        3.0771429231  MEMB      24              0.0000000000
      3760        52  DOPC      H17R          -23.6297879047      -12.5401982417        3.2436406862  MEMB      24              0.0000000000
      3761        52  DOPC      H17S          -22.4108407653      -11.5605650482        2.3171862254  MEMB      24              0.0000000000
      3762        52  DOPC      C218          -24.3758777355      -10.6221480714        2.4877364458  MEMB      24              0.0000000000
      3763        52  DOPC      H18R          -24.6972250379      -11.0661997615        1.5213639157  MEMB      24              0.0000000000
      3764        52  DOPC      H18S          -24.0714483795       -9.5610089390        2.3627265210  MEMB      24              0.0000000000
      3765        52  DOPC      H18T          -25.2285615817      -10.7173284306        3.1935629006  MEMB      24              0.0000000000
      3766        52  DOPC      C33           -21.9647396447       -9.7642790061       13.4884296709  MEMB      24              0.0000000000
      3767        52  DOPC      H3X           -20.9294143820       -9.8089222437       13.8889664260  MEMB      24              0.0000000000
      3768        52  DOPC      H3Y           -22.6456780239       -9.6576834206       14.3597973940  MEMB      24              0.0000000000
      3769        52  DOPC      C34           -22.2640231799       -8.6111214728       12.4621228277  MEMB      24              0.0000000000
      3770        52  DOPC      H4X           -21.9652202448       -7.6360023428       12.9027821017  MEMB      24              0.0000000000
      3771        52  DOPC      H4Y           -23.3591129597       -8.5805473871       12.2772860257  MEMB      24              0.0000000000
      3772        52  DOPC      C35           -21.5760839624       -8.5901345995       11.0818168411  MEMB      24              0.0000000000
      3773        52  DOPC      H5X           -21.6272718118       -9.5866645083       10.5933207652  MEMB      24              0.0000000000
      3774        52  DOPC      H5Y           -20.5699791402       -8.2313805328       11.3873811790  MEMB      24              0.0000000000
      3775        52  DOPC      C36           -22.2088662937       -7.6152833598       10.1702630154  MEMB      24              0.0000000000
      3776        52  DOPC      H6X           -23.1394641484       -8.1620536350        9.9069168744  MEMB      24              0.0000000000
      3777        52  DOPC      H6Y           -22.2686390021       -6.6264309919       10.6731737315  MEMB      24              0.0000000000
      3778        52  DOPC      C37           -21.4436388149       -7.3779488191        8.7532832629  MEMB      24              0.0000000000
      3779        52  DOPC      H7X           -21.3293661449       -8.3742547437        8.2751230699  MEMB      24              0.0000000000
      3780        52  DOPC      H7Y           -22.1925007617       -6.7332830465        8.2454126829  MEMB      24              0.0000000000
      3781        52  DOPC      C38           -20.1693006088       -6.5183531691        8.8432943202  MEMB      24              0.0000000000
      3782        52  DOPC      H8X           -19.5475860601       -6.9987144468        9.6288166470  MEMB      24              0.0000000000
      3783        52  DOPC      H8Y           -20.5639038696       -5.5701276566        9.2669423550  MEMB      24              0.0000000000
      3784        52  DOPC      C39           -19.5298657988       -6.3572686720        7.5625447314  MEMB      24              0.0000000000
      3785        52  DOPC      H9X           -18.5087591963       -6.7474940834        7.4398028388  MEMB      24              0.0000000000
      3786        52  DOPC      C310          -19.8777404682       -5.5588033652        6.4401182380  MEMB      24              0.0000000000
      3787        52  DOPC      H10X          -19.1166182102       -5.5769968614        5.6461646768  MEMB      24              0.0000000000
      3788        52  DOPC      C311          -21.1224496932       -4.6887495222        6.2746945574  MEMB      24              0.0000000000
      3789        52  DOPC      H11X          -21.0980223624       -3.6746166722        6.7277485808  MEMB      24              0.0000000000
      3790        52  DOPC      H11Y          -22.0173951002       -5.1522836017        6.7421657163  MEMB      24              0.0000000000
      3791        52  DOPC      C312          -21.4590471870       -4.5177189850        4.7569037442  MEMB      24              0.0000000000
      3792        52  DOPC      H12X          -20.5493782725       -4.2047339620        4.2011486586  MEMB      24              0.0000000000
      3793        52  DOPC      H12Y          -22.0870342685       -3.6116322520        4.6192087505  MEMB      24              0.0000000000
      3794        52  DOPC      C313          -22.1639939922       -5.8197759910        4.2613856196  MEMB      24              0.0000000000
      3795        52  DOPC      H13X          -21.3872470999       -6.6132231650        4.2236119849  MEMB      24              0.0000000000
      3796        52  DOPC      H13Y          -22.9776883092       -6.1768782191        4.9282442370  MEMB      24              0.0000000000
      3797        52  DOPC      C314          -22.7820131756       -5.7594749435        2.8590625046  MEMB      24              0.0000000000
      3798        52  DOPC      H14X          -23.4680632822       -6.6245124776        2.7351008546  MEMB      24              0.0000000000
      3799        52  DOPC      H14Y          -23.5116103995       -4.9307470555        2.9824273861  MEMB      24              0.0000000000
      3800        52  DOPC      C315          -21.9593140269       -5.4625942777        1.6724996799  MEMB      24              0.0000000000
      3801        52  DOPC      H15X          -21.8335690244       -4.3759871440        1.4780932759  MEMB      24              0.0000000000
      3802        52  DOPC      H15Y          -22.4172369755       -5.7340347858        0.6973350691  MEMB      24              0.0000000000
      3803        52  DOPC      C316          -20.6168793575       -6.3091597800        1.5707513012  MEMB      24              0.0000000000
      3804        52  DOPC      H16X          -20.1707177279       -5.8990480367        0.6395852919  MEMB      24              0.0000000000
      3805        52  DOPC      H16Y          -19.8905980152       -6.0674993376        2.3760057857  MEMB      24              0.0000000000
      3806        52  DOPC      C317          -20.8264157307       -7.8459504690        1.4063785091  MEMB      24              0.0000000000
      3807        52  DOPC      H17X          -19.8829141916       -8.4056756284        1.2307835734  MEMB      24              0.0000000000
      3808        52  DOPC      H17Y          -21.2048609361       -8.1928982526        2.3916344558  MEMB      24              0.0000000000
      3809        52  DOPC      C318          -21.8759645831       -8.4216490315        0.3695766338  MEMB      24              0.0000000000
      3810        52  DOPC      H18X          -22.1408875661       -9.4605890326        0.6606796427  MEMB      24              0.0000000000
      3811        52  DOPC      H18Y          -22.7563556110       -7.7450887094        0.3308642030  MEMB      24              0.0000000000
      3812        52  DOPC      H18Z          -21.4499785773       -8.3597369890       -0.6546418111  MEMB      24              0.0000000000
      3813        53  DOPC      N             -12.4399299058       22.6416663667       17.3538415721  MEMB      25              0.0000000000
      3814        53  DOPC      C12           -11.4244567774       23.7693679658       17.1564553677  MEMB      25              0.0000000000
      3815        53  DOPC      H12A          -11.8926558445       24.4777854235       16.4891216392  MEMB      25              0.0000000000
      3816        53  DOPC      H12B          -10.5374548755       23.3007441343       16.7564311127  MEMB      25              0.0000000000
      3817        53  DOPC      C13           -12.4841016462       21.6834582769       16.1721221819  MEMB      25              0.0000000000
      3818        53  DOPC      H13A          -13.0654340556       20.7963375019       16.3757625762  MEMB      25              0.0000000000
      3819        53  DOPC      H13B          -12.6728166158       22.2005127553       15.2429068223  MEMB      25              0.0000000000
      3820        53  DOPC      H13C          -11.4920355126       21.2673164310       16.0770927865  MEMB      25              0.0000000000
      3821        53  DOPC      C14           -13.7937243795       23.2549214046       17.6079421937  MEMB      25              0.0000000000
      3822        53  DOPC      H14A          -13.9193894594       23.8721192125       18.4852535181  MEMB      25              0.0000000000
      3823        53  DOPC      H14B          -14.1590177873       23.8054361934       16.7536037650  MEMB      25              0.0000000000
      3824        53  DOPC      H14C          -14.3837209863       22.3618573492       17.7519584823  MEMB      25              0.0000000000
      3825        53  DOPC      C15           -12.1267793540       21.7575988213       18.5868116589  MEMB      25              0.0000000000
      3826        53  DOPC      H15A          -12.8280205757       20.9364864769       18.6076725367  MEMB      25              0.0000000000
      3827        53  DOPC      H15B          -12.0682654310       22.2313178251       19.5556081160  MEMB      25              0.0000000000
      3828        53  DOPC      H15C          -11.1588080089       21.3041025797       18.4326279231  MEMB      25              0.0000000000
      3829        53  DOPC      C11           -11.0641024260       24.6766347616       18.4285441833  MEMB      25              0.0000000000
      3830        53  DOPC      H11A          -10.7305696770       25.6866707274       18.1077572892  MEMB      25              0.0000000000
      3831        53  DOPC      H11B          -11.9324968044       24.8944071846       19.0864099717  MEMB      25              0.0000000000
      3832        53  DOPC      P              -9.9727154203       24.3070292901       20.7992336929  MEMB      25              0.0000000000
      3833        53  DOPC      O13           -10.9704276052       23.4510356375       21.4337735970  MEMB      25              0.0000000000
      3834        53  DOPC      O14           -10.0999158905       25.7965635829       20.9333892227  MEMB      25              0.0000000000
      3835        53  DOPC      O12           -10.0417094805       24.0094002628       19.1838815214  MEMB      25              0.0000000000
      3836        53  DOPC      O11            -8.4992237023       23.9053154112       21.3440048359  MEMB      25              0.0000000000
      3837        53  DOPC      C1             -7.8481838204       22.7322570090       20.8716907078  MEMB      25              0.0000000000
      3838        53  DOPC      HA             -8.4938491562       21.9538965736       20.4116991258  MEMB      25              0.0000000000
      3839        53  DOPC      HB             -7.2868302138       22.2764848335       21.7151803005  MEMB      25              0.0000000000
      3840        53  DOPC      C2             -6.8066190818       23.2081984611       19.8560883798  MEMB      25              0.0000000000
      3841        53  DOPC      HS             -6.1281476453       23.8363982590       20.4720126987  MEMB      25              0.0000000000
      3842        53  DOPC      O21            -7.5034154983       23.8753535253       18.8033290491  MEMB      25              0.0000000000
      3843        53  DOPC      C21            -6.9268360078       24.8344038271       18.0392112316  MEMB      25              0.0000000000
      3844        53  DOPC      O22            -5.7914225603       25.2876401350       18.2330742587  MEMB      25              0.0000000000
      3845        53  DOPC      C22            -7.8876797233       25.3639403861       16.9705016012  MEMB      25              0.0000000000
      3846        53  DOPC      H2R            -8.6545033705       26.0681600819       17.3582861896  MEMB      25              0.0000000000
      3847        53  DOPC      H2S            -8.4582732004       24.4349900752       16.7565030543  MEMB      25              0.0000000000
      3848        53  DOPC      C3             -5.8995132788       22.1081943088       19.2355847780  MEMB      25              0.0000000000
      3849        53  DOPC      HX             -5.1139027880       21.7195362844       19.9182867975  MEMB      25              0.0000000000
      3850        53  DOPC      HY             -5.2872866839       22.5756574364       18.4349740413  MEMB      25              0.0000000000
      3851        53  DOPC      O31            -6.7570909909       20.9925390470       18.6983601809  MEMB      25              0.0000000000
      3852        53  DOPC      C31            -7.4171974140       21.2563283669       17.5584821753  MEMB      25              0.0000000000
      3853        53  DOPC      O32            -7.1915699299       22.1808283131       16.8176496718  MEMB      25              0.0000000000
      3854        53  DOPC      C32            -8.4503860780       20.2066592450       17.2211017447  MEMB      25              0.0000000000
      3855        53  DOPC      H2X            -8.0063768671       19.1971326767       17.3553883224  MEMB      25              0.0000000000
      3856        53  DOPC      H2Y            -9.3253681922       20.1354624324       17.9020266122  MEMB      25              0.0000000000
      3857        53  DOPC      C23            -7.2030020732       25.7830639557       15.7271181468  MEMB      25              0.0000000000
      3858        53  DOPC      H3R            -6.3221624468       25.1614226375       15.4587813513  MEMB      25              0.0000000000
      3859        53  DOPC      H3S            -6.6803455729       26.7624401908       15.7715429125  MEMB      25              0.0000000000
      3860        53  DOPC      C24            -8.0659420705       25.7865682347       14.4102849137  MEMB      25              0.0000000000
      3861        53  DOPC      H4R            -7.3795321445       26.2353600060       13.6607863967  MEMB      25              0.0000000000
      3862        53  DOPC      H4S            -8.9417627754       26.4558802371       14.5491403686  MEMB      25              0.0000000000
      3863        53  DOPC      C25            -8.3150307533       24.3477810117       13.9227180841  MEMB      25              0.0000000000
      3864        53  DOPC      H5R            -9.0941791259       23.9144990745       14.5856781073  MEMB      25              0.0000000000
      3865        53  DOPC      H5S            -7.3654743840       23.7832122292       14.0407260632  MEMB      25              0.0000000000
      3866        53  DOPC      C26            -8.7738359316       24.2540231998       12.4953319444  MEMB      25              0.0000000000
      3867        53  DOPC      H6R            -8.6683104683       23.2304925022       12.0763205624  MEMB      25              0.0000000000
      3868        53  DOPC      H6S            -8.0705024413       24.9185342438       11.9493757116  MEMB      25              0.0000000000
      3869        53  DOPC      C27           -10.2261201570       24.6917532351       12.0771171901  MEMB      25              0.0000000000
      3870        53  DOPC      H7R           -10.4711068510       24.7432855017       10.9946907166  MEMB      25              0.0000000000
      3871        53  DOPC      H7S           -10.4360508580       25.7612551395       12.2925599296  MEMB      25              0.0000000000
      3872        53  DOPC      C28           -11.3622824954       23.9059815026       12.8565762063  MEMB      25              0.0000000000
      3873        53  DOPC      H8R           -12.2646163457       24.5401393868       12.7225679757  MEMB      25              0.0000000000
      3874        53  DOPC      H8S           -11.1835186549       23.9917923025       13.9497374021  MEMB      25              0.0000000000
      3875        53  DOPC      C29           -11.7318308557       22.4694736201       12.4615936180  MEMB      25              0.0000000000
      3876        53  DOPC      H9R           -11.8581117767       21.6828395896       13.2200525493  MEMB      25              0.0000000000
      3877        53  DOPC      C210          -12.0199051581       22.1002573508       11.1933807802  MEMB      25              0.0000000000
      3878        53  DOPC      H10R          -12.2901205200       21.0402679315       11.0775968094  MEMB      25              0.0000000000
      3879        53  DOPC      C211          -12.0371756695       22.8453008125        9.8957135355  MEMB      25              0.0000000000
      3880        53  DOPC      H11R          -11.1652945535       22.4380495470        9.3404740913  MEMB      25              0.0000000000
      3881        53  DOPC      H11S          -11.9167608945       23.9271914705       10.1178262847  MEMB      25              0.0000000000
      3882        53  DOPC      C212          -13.2436067297       22.8090501050        8.8921146529  MEMB      25              0.0000000000
      3883        53  DOPC      H12R          -14.0431576427       23.5293397650        9.1681964560  MEMB      25              0.0000000000
      3884        53  DOPC      H12S          -13.7499286165       21.8218062446        8.8345959002  MEMB      25              0.0000000000
      3885        53  DOPC      C213          -12.9371115750       23.0797256933        7.4037981905  MEMB      25              0.0000000000
      3886        53  DOPC      H13R          -12.3866262845       24.0408062420        7.4910431306  MEMB      25              0.0000000000
      3887        53  DOPC      H13S          -13.8402163255       23.2272230121        6.7737448866  MEMB      25              0.0000000000
      3888        53  DOPC      C214          -12.2478345529       21.9980165380        6.6953715316  MEMB      25              0.0000000000
      3889        53  DOPC      H14R          -12.7160334756       21.0111542243        6.8983824454  MEMB      25              0.0000000000
      3890        53  DOPC      H14S          -11.2236203919       21.9398352219        7.1218943992  MEMB      25              0.0000000000
      3891        53  DOPC      C215          -12.1037356356       21.9897222895        5.1502623640  MEMB      25              0.0000000000
      3892        53  DOPC      H15R          -11.4750794590       22.8570128926        4.8554410590  MEMB      25              0.0000000000
      3893        53  DOPC      H15S          -13.1083049864       22.3107884214        4.8008658988  MEMB      25              0.0000000000
      3894        53  DOPC      C216          -11.6992808963       20.6164920981        4.6023882893  MEMB      25              0.0000000000
      3895        53  DOPC      H16R          -12.3611776119       19.9658701190        5.2130482618  MEMB      25              0.0000000000
      3896        53  DOPC      H16S          -10.6616678524       20.2604132248        4.7781372499  MEMB      25              0.0000000000
      3897        53  DOPC      C217          -12.2598940395       20.5088280233        3.1184633838  MEMB      25              0.0000000000
      3898        53  DOPC      H17R          -13.3380984134       20.7239730815        2.9587472967  MEMB      25              0.0000000000
      3899        53  DOPC      H17S          -12.0641069184       19.4287663834        2.9468397113  MEMB      25              0.0000000000
      3900        53  DOPC      C218          -11.2934608561       21.1833656250        2.0857581311  MEMB      25              0.0000000000
      3901        53  DOPC      H18R          -11.2509013328       22.2933745942        2.1054967175  MEMB      25              0.0000000000
      3902        53  DOPC      H18S          -11.7126551631       20.8385554848        1.1163756858  MEMB      25              0.0000000000
      3903        53  DOPC      H18T          -10.2983882408       20.6988514096        2.1826967063  MEMB      25              0.0000000000
      3904        53  DOPC      C33            -8.9190982780       20.3293141583       15.7525370514  MEMB      25              0.0000000000
      3905        53  DOPC      H3X            -9.1606848514       21.3993723047       15.5766598657  MEMB      25              0.0000000000
      3906        53  DOPC      H3Y            -9.8347092371       19.7035302143       15.6864156718  MEMB      25              0.0000000000
      3907        53  DOPC      C34            -7.9884071332       19.7918089106       14.7174974153  MEMB      25              0.0000000000
      3908        53  DOPC      H4X            -8.0561538606       18.6905080008       14.8473727880  MEMB      25              0.0000000000
      3909        53  DOPC      H4Y            -6.9467205096       20.0456464342       15.0086613602  MEMB      25              0.0000000000
      3910        53  DOPC      C35            -8.3544972056       20.0312089737       13.1990687594  MEMB      25              0.0000000000
      3911        53  DOPC      H5X            -8.5284035098       21.0770736002       12.8670376397  MEMB      25              0.0000000000
      3912        53  DOPC      H5Y            -9.2428368963       19.3946850266       12.9990414222  MEMB      25              0.0000000000
      3913        53  DOPC      C36            -7.2119643310       19.4915892424       12.2150783648  MEMB      25              0.0000000000
      3914        53  DOPC      H6X            -6.5378669452       20.3747164739       12.2149001052  MEMB      25              0.0000000000
      3915        53  DOPC      H6Y            -6.7913302699       18.5831701626       12.6969109004  MEMB      25              0.0000000000
      3916        53  DOPC      C37            -7.6685757181       19.2638106837       10.7271268746  MEMB      25              0.0000000000
      3917        53  DOPC      H7X            -6.8966246571       18.7181999554       10.1434134251  MEMB      25              0.0000000000
      3918        53  DOPC      H7Y            -8.5543779476       18.5935619064       10.7061037546  MEMB      25              0.0000000000
      3919        53  DOPC      C38            -8.0501548116       20.6433766660       10.0176285600  MEMB      25              0.0000000000
      3920        53  DOPC      H8X            -9.0345309929       20.9082833430       10.4593843449  MEMB      25              0.0000000000
      3921        53  DOPC      H8Y            -8.3031378130       20.4926160429        8.9463709949  MEMB      25              0.0000000000
      3922        53  DOPC      C39            -7.1251422680       21.8352053559       10.0886681852  MEMB      25              0.0000000000
      3923        53  DOPC      H9X            -7.6856956133       22.7809087238       10.1264223516  MEMB      25              0.0000000000
      3924        53  DOPC      C310           -5.7755996556       21.8526078024       10.0160583839  MEMB      25              0.0000000000
      3925        53  DOPC      H10X           -5.3115380797       22.8402514054       10.1546482308  MEMB      25              0.0000000000
      3926        53  DOPC      C311           -4.7585314469       20.6754556241        9.8922478961  MEMB      25              0.0000000000
      3927        53  DOPC      H11X           -5.1981629141       19.6615015544       10.0060130690  MEMB      25              0.0000000000
      3928        53  DOPC      H11Y           -3.9454995871       20.6516794576       10.6490402604  MEMB      25              0.0000000000
      3929        53  DOPC      C312           -3.9852203704       20.7572665613        8.5001245327  MEMB      25              0.0000000000
      3930        53  DOPC      H12X           -3.1968526415       19.9933736509        8.6711938105  MEMB      25              0.0000000000
      3931        53  DOPC      H12Y           -3.4324761769       21.7194040579        8.4445704615  MEMB      25              0.0000000000
      3932        53  DOPC      C313           -4.8921481831       20.5083845031        7.3709714406  MEMB      25              0.0000000000
      3933        53  DOPC      H13X           -5.5257867482       19.6182355569        7.5721142286  MEMB      25              0.0000000000
      3934        53  DOPC      H13Y           -5.6917470158       21.2724584741        7.2653601257  MEMB      25              0.0000000000
      3935        53  DOPC      C314           -4.0902204555       20.2114204920        6.0960340909  MEMB      25              0.0000000000
      3936        53  DOPC      H14X           -3.1354905333       20.7736812443        6.1777327123  MEMB      25              0.0000000000
      3937        53  DOPC      H14Y           -3.9383430523       19.1147312900        6.1883740756  MEMB      25              0.0000000000
      3938        53  DOPC      C315           -4.7321087729       20.4149639105        4.7313385089  MEMB      25              0.0000000000
      3939        53  DOPC      H15X           -5.6945666694       19.8603905094        4.7102594782  MEMB      25              0.0000000000
      3940        53  DOPC      H15Y           -4.0111319305       20.1242380470        3.9376188441  MEMB      25              0.0000000000
      3941        53  DOPC      C316           -5.2049866475       21.9061231066        4.5660672266  MEMB      25              0.0000000000
      3942        53  DOPC      H16X           -6.0279655853       22.2664427369        5.2196698445  MEMB      25              0.0000000000
      3943        53  DOPC      H16Y           -4.3323710119       22.5439801331        4.8229747756  MEMB      25              0.0000000000
      3944        53  DOPC      C317           -5.5691034731       22.3867186184        3.1188127936  MEMB      25              0.0000000000
      3945        53  DOPC      H17X           -4.6670110804       22.7151341530        2.5596236951  MEMB      25              0.0000000000
      3946        53  DOPC      H17Y           -5.9023059331       21.4690822146        2.5884906571  MEMB      25              0.0000000000
      3947        53  DOPC      C318           -6.6004653806       23.4550715523        3.0245755182  MEMB      25              0.0000000000
      3948        53  DOPC      H18X           -6.9208920734       23.5971949972        1.9703236617  MEMB      25              0.0000000000
      3949        53  DOPC      H18Y           -7.5426218587       23.2049642538        3.5575935521  MEMB      25              0.0000000000
      3950        53  DOPC      H18Z           -6.0970624269       24.3994614136        3.3229612067  MEMB      25              0.0000000000
      3951        54  DOPC      N              -0.7660303288       24.6360929445       18.2572022751  MEMB      26              0.0000000000
      3952        54  DOPC      C12            -1.7526933037       24.2591638150       19.3866255532  MEMB      26              0.0000000000
      3953        54  DOPC      H12A           -1.1658563328       23.7600209905       20.1435130937  MEMB      26              0.0000000000
      3954        54  DOPC      H12B           -2.4977822468       23.5647790735       19.0273591557  MEMB      26              0.0000000000
      3955        54  DOPC      C13            -1.4690969397       25.1735629957       17.0359415117  MEMB      26              0.0000000000
      3956        54  DOPC      H13A           -2.1152694874       24.4354043824       16.5842968839  MEMB      26              0.0000000000
      3957        54  DOPC      H13B           -2.0468746038       26.0485943680       17.2945787881  MEMB      26              0.0000000000
      3958        54  DOPC      H13C           -0.7651161937       25.3876588765       16.2453884366  MEMB      26              0.0000000000
      3959        54  DOPC      C14            -0.0392610995       23.3427682543       17.8566829985  MEMB      26              0.0000000000
      3960        54  DOPC      H14A           -0.6468188761       22.4837465439       17.6130535838  MEMB      26              0.0000000000
      3961        54  DOPC      H14B            0.7541816474       23.6328410031       17.1838483570  MEMB      26              0.0000000000
      3962        54  DOPC      H14C            0.4961535156       23.0901023349       18.7599498119  MEMB      26              0.0000000000
      3963        54  DOPC      C15             0.2701917845       25.6327407826       18.7060576089  MEMB      26              0.0000000000
      3964        54  DOPC      H15A            0.9685810141       25.1605402196       19.3810977074  MEMB      26              0.0000000000
      3965        54  DOPC      H15B           -0.1807302560       26.4453391734       19.2562877052  MEMB      26              0.0000000000
      3966        54  DOPC      H15C            0.7386846449       25.9520422959       17.7868400601  MEMB      26              0.0000000000
      3967        54  DOPC      C11            -2.6684421347       25.3345533619       19.9734689100  MEMB      26              0.0000000000
      3968        54  DOPC      H11A           -3.0454464950       24.8917191734       20.9200874063  MEMB      26              0.0000000000
      3969        54  DOPC      H11B           -2.0843817383       26.2343846376       20.2624290682  MEMB      26              0.0000000000
      3970        54  DOPC      P              -4.8520339714       26.5101324754       19.6761109295  MEMB      26              0.0000000000
      3971        54  DOPC      O13            -4.5112394397       27.2305839989       20.9448234319  MEMB      26              0.0000000000
      3972        54  DOPC      O14            -6.1089964739       25.6528320883       19.6000944401  MEMB      26              0.0000000000
      3973        54  DOPC      O12            -3.6205071369       25.6562959961       19.0581632956  MEMB      26              0.0000000000
      3974        54  DOPC      O11            -5.0630263717       27.5481408835       18.5048290484  MEMB      26              0.0000000000
      3975        54  DOPC      C1             -4.1383860856       28.5106734565       18.2342876347  MEMB      26              0.0000000000
      3976        54  DOPC      HA             -3.1043689287       28.1069066316       18.2801331633  MEMB      26              0.0000000000
      3977        54  DOPC      HB             -4.1063885660       29.1569748164       19.1373888059  MEMB      26              0.0000000000
      3978        54  DOPC      C2             -4.4266316126       29.1513965901       16.9181498994  MEMB      26              0.0000000000
      3979        54  DOPC      HS             -5.0630472866       30.0618052297       16.9394129079  MEMB      26              0.0000000000
      3980        54  DOPC      O21            -4.9720397649       28.1543487297       16.0617252272  MEMB      26              0.0000000000
      3981        54  DOPC      C21            -5.5924121687       28.5508788671       14.9785409724  MEMB      26              0.0000000000
      3982        54  DOPC      O22            -6.0424650379       29.6872288767       14.8123938941  MEMB      26              0.0000000000
      3983        54  DOPC      C22            -5.6516897785       27.3922694215       13.9579890816  MEMB      26              0.0000000000
      3984        54  DOPC      H2R            -6.6462589442       26.9032335082       14.0354293250  MEMB      26              0.0000000000
      3985        54  DOPC      H2S            -4.9291864656       26.5725316423       14.1588362753  MEMB      26              0.0000000000
      3986        54  DOPC      C3             -3.1383557745       29.6161436875       16.1958046951  MEMB      26              0.0000000000
      3987        54  DOPC      HX             -2.6836293014       30.5051279351       16.6828896595  MEMB      26              0.0000000000
      3988        54  DOPC      HY             -3.3719330499       29.9421092181       15.1597017512  MEMB      26              0.0000000000
      3989        54  DOPC      O31            -2.1603511211       28.5902251400       16.0579717137  MEMB      26              0.0000000000
      3990        54  DOPC      C31            -1.0874089145       28.8514854337       15.2503222359  MEMB      26              0.0000000000
      3991        54  DOPC      O32            -0.9575752521       29.9307821602       14.7484281828  MEMB      26              0.0000000000
      3992        54  DOPC      C32            -0.2696921454       27.6305427182       15.2388163992  MEMB      26              0.0000000000
      3993        54  DOPC      H2X             0.2308490201       27.4452244886       16.2132067152  MEMB      26              0.0000000000
      3994        54  DOPC      H2Y            -0.8589584248       26.7106721345       15.0365184435  MEMB      26              0.0000000000
      3995        54  DOPC      C23            -5.5673876800       27.8757750222       12.4647472225  MEMB      26              0.0000000000
      3996        54  DOPC      H3R            -6.2812775823       28.7110059683       12.3002149973  MEMB      26              0.0000000000
      3997        54  DOPC      H3S            -5.7505638210       27.0130371484       11.7891358179  MEMB      26              0.0000000000
      3998        54  DOPC      C24            -4.2007702251       28.4308407586       11.9495006717  MEMB      26              0.0000000000
      3999        54  DOPC      H4R            -3.4430107588       27.6327078715       12.1015055560  MEMB      26              0.0000000000
      4000        54  DOPC      H4S            -3.8409048348       29.2117995198       12.6530072164  MEMB      26              0.0000000000
      4001        54  DOPC      C25            -4.1937029252       29.1605519064       10.6140208243  MEMB      26              0.0000000000
      4002        54  DOPC      H5R            -4.8514660295       30.0533457852       10.6817554270  MEMB      26              0.0000000000
      4003        54  DOPC      H5S            -4.7783469416       28.5371473770        9.9041762539  MEMB      26              0.0000000000
      4004        54  DOPC      C26            -2.8240637306       29.6629042927       10.0488876700  MEMB      26              0.0000000000
      4005        54  DOPC      H6R            -2.1247651660       28.8408746303        9.7851265793  MEMB      26              0.0000000000
      4006        54  DOPC      H6S            -2.4756201604       30.1384721940       10.9905575653  MEMB      26              0.0000000000
      4007        54  DOPC      C27            -2.7472429179       30.8105440426        9.0343082147  MEMB      26              0.0000000000
      4008        54  DOPC      H7R            -1.6975375090       31.1356413505        8.8707510624  MEMB      26              0.0000000000
      4009        54  DOPC      H7S            -3.1449818738       31.7713507047        9.4254286619  MEMB      26              0.0000000000
      4010        54  DOPC      C28            -3.4851113707       30.4821990994        7.7451181080  MEMB      26              0.0000000000
      4011        54  DOPC      H8R            -3.4126551338       31.4481999331        7.2011383549  MEMB      26              0.0000000000
      4012        54  DOPC      H8S            -4.5505016360       30.3007155145        8.0026604091  MEMB      26              0.0000000000
      4013        54  DOPC      C29            -2.8634881266       29.2593106322        7.0958565917  MEMB      26              0.0000000000
      4014        54  DOPC      H9R            -2.5141818642       28.5008111974        7.8118624061  MEMB      26              0.0000000000
      4015        54  DOPC      C210           -2.6483169289       29.1322522243        5.7865323603  MEMB      26              0.0000000000
      4016        54  DOPC      H10R           -2.2514775825       28.1529294609        5.4808436858  MEMB      26              0.0000000000
      4017        54  DOPC      C211           -2.9837009653       30.0232989197        4.6750831630  MEMB      26              0.0000000000
      4018        54  DOPC      H11R           -2.0964970730       30.0881679554        4.0095136756  MEMB      26              0.0000000000
      4019        54  DOPC      H11S           -3.2777253594       30.9758922133        5.1654266525  MEMB      26              0.0000000000
      4020        54  DOPC      C212           -4.1225126016       29.5122582894        3.8366287681  MEMB      26              0.0000000000
      4021        54  DOPC      H12R           -4.2140227446       30.2761742210        3.0351428101  MEMB      26              0.0000000000
      4022        54  DOPC      H12S           -5.0286237287       29.3866687969        4.4671143113  MEMB      26              0.0000000000
      4023        54  DOPC      C213           -3.9700054503       28.2114112202        3.0660270237  MEMB      26              0.0000000000
      4024        54  DOPC      H13R           -3.6575986901       27.2917706160        3.6054567527  MEMB      26              0.0000000000
      4025        54  DOPC      H13S           -3.2381217594       28.5453702358        2.2997774306  MEMB      26              0.0000000000
      4026        54  DOPC      C214           -5.0778083412       27.8340141620        2.0902978159  MEMB      26              0.0000000000
      4027        54  DOPC      H14R           -5.5681450481       28.7619780690        1.7259153038  MEMB      26              0.0000000000
      4028        54  DOPC      H14S           -5.8796721289       27.3148606109        2.6575834533  MEMB      26              0.0000000000
      4029        54  DOPC      C215           -4.5141573811       26.9222271767        0.9096072174  MEMB      26              0.0000000000
      4030        54  DOPC      H15R           -5.2118198706       26.1355700754        0.5507783566  MEMB      26              0.0000000000
      4031        54  DOPC      H15S           -3.5361162095       26.4574640127        1.1581062997  MEMB      26              0.0000000000
      4032        54  DOPC      C216           -4.1821972602       27.8118700960       -0.2773057142  MEMB      26              0.0000000000
      4033        54  DOPC      H16R           -3.5346646815       28.6615777717        0.0276854892  MEMB      26              0.0000000000
      4034        54  DOPC      H16S           -5.0866658014       28.0773440435       -0.8653370328  MEMB      26              0.0000000000
      4035        54  DOPC      C217           -3.1897640131       27.0845170885       -1.2560897392  MEMB      26              0.0000000000
      4036        54  DOPC      H17R           -3.7385312590       26.2642773274       -1.7663659625  MEMB      26              0.0000000000
      4037        54  DOPC      H17S           -2.3861411586       26.6767778778       -0.6062743327  MEMB      26              0.0000000000
      4038        54  DOPC      C218           -2.6584301026       27.9528534451       -2.3723131188  MEMB      26              0.0000000000
      4039        54  DOPC      H18R           -1.8076105998       28.5905399242       -2.0501597518  MEMB      26              0.0000000000
      4040        54  DOPC      H18S           -3.5107316667       28.5455381370       -2.7680751675  MEMB      26              0.0000000000
      4041        54  DOPC      H18T           -2.3025967223       27.2780340881       -3.1799787617  MEMB      26              0.0000000000
      4042        54  DOPC      C33             0.7751110765       27.6963546720       14.2071087516  MEMB      26              0.0000000000
      4043        54  DOPC      H3X             1.5503215265       26.9340890986       14.4358466048  MEMB      26              0.0000000000
      4044        54  DOPC      H3Y             1.3207635985       28.6640875909       14.2159213994  MEMB      26              0.0000000000
      4045        54  DOPC      C34             0.2625762059       27.4178127638       12.7345396240  MEMB      26              0.0000000000
      4046        54  DOPC      H4X            -0.3111268281       28.3555310424       12.5736969619  MEMB      26              0.0000000000
      4047        54  DOPC      H4Y            -0.3920100107       26.5201846605       12.7446271096  MEMB      26              0.0000000000
      4048        54  DOPC      C35             1.3121078905       27.3026176677       11.6696155038  MEMB      26              0.0000000000
      4049        54  DOPC      H5X             2.0112943966       26.4735398490       11.9106330134  MEMB      26              0.0000000000
      4050        54  DOPC      H5Y             1.7372959563       28.3226215243       11.5550367080  MEMB      26              0.0000000000
      4051        54  DOPC      C36             0.7555339212       26.8097813561       10.3034348361  MEMB      26              0.0000000000
      4052        54  DOPC      H6X             0.0519827249       27.6221753946       10.0217389053  MEMB      26              0.0000000000
      4053        54  DOPC      H6Y             1.5342234381       26.8447625018        9.5117653033  MEMB      26              0.0000000000
      4054        54  DOPC      C37             0.1159514552       25.3990689617       10.3739557027  MEMB      26              0.0000000000
      4055        54  DOPC      H7X             0.6500629527       24.5557599327       10.8616808350  MEMB      26              0.0000000000
      4056        54  DOPC      H7Y            -0.8882618777       25.4438220257       10.8471096165  MEMB      26              0.0000000000
      4057        54  DOPC      C38            -0.2562190993       24.9241107279        8.8929272505  MEMB      26              0.0000000000
      4058        54  DOPC      H8X            -0.9500483513       25.6914249564        8.4877709630  MEMB      26              0.0000000000
      4059        54  DOPC      H8Y            -0.7269719800       23.9210485492        8.9740355239  MEMB      26              0.0000000000
      4060        54  DOPC      C39             0.9282875057       25.0695563326        7.8470225477  MEMB      26              0.0000000000
      4061        54  DOPC      H9X             1.8333780628       24.5703705536        8.2233527563  MEMB      26              0.0000000000
      4062        54  DOPC      C310            1.0152344467       25.6819995303        6.6788252588  MEMB      26              0.0000000000
      4063        54  DOPC      H10X            1.9353748194       25.5122299947        6.1004483687  MEMB      26              0.0000000000
      4064        54  DOPC      C311           -0.0767012481       26.4179581558        5.9380805365  MEMB      26              0.0000000000
      4065        54  DOPC      H11X            0.1017658097       27.5001054351        6.1153591260  MEMB      26              0.0000000000
      4066        54  DOPC      H11Y           -1.0463842355       26.2240810072        6.4444864247  MEMB      26              0.0000000000
      4067        54  DOPC      C312           -0.1367725685       26.2345952633        4.3853949627  MEMB      26              0.0000000000
      4068        54  DOPC      H12X           -0.9782087294       26.8284827670        3.9687372233  MEMB      26              0.0000000000
      4069        54  DOPC      H12Y           -0.3324525348       25.1803694930        4.0944681172  MEMB      26              0.0000000000
      4070        54  DOPC      C313            1.0290396046       26.8222733061        3.6069728640  MEMB      26              0.0000000000
      4071        54  DOPC      H13X            0.9546291411       27.9307559272        3.5998881926  MEMB      26              0.0000000000
      4072        54  DOPC      H13Y            1.9453267294       26.5068295410        4.1503271139  MEMB      26              0.0000000000
      4073        54  DOPC      C314            1.1777408400       26.2989432999        2.2320073110  MEMB      26              0.0000000000
      4074        54  DOPC      H14X            2.2074123882       26.3319107554        1.8160609741  MEMB      26              0.0000000000
      4075        54  DOPC      H14Y            0.9507055324       25.2120589712        2.2702027082  MEMB      26              0.0000000000
      4076        54  DOPC      C315            0.2790061865       26.9432813814        1.1522625913  MEMB      26              0.0000000000
      4077        54  DOPC      H15X            0.5259031737       28.0242288501        1.0821559301  MEMB      26              0.0000000000
      4078        54  DOPC      H15Y           -0.8103844769       26.7562434282        1.2643642246  MEMB      26              0.0000000000
      4079        54  DOPC      C316            0.5548744992       26.6933199843       -0.2749859063  MEMB      26              0.0000000000
      4080        54  DOPC      H16X           -0.0512587594       27.3678079292       -0.9168517560  MEMB      26              0.0000000000
      4081        54  DOPC      H16Y            1.6309590391       26.9562684184       -0.3599675229  MEMB      26              0.0000000000
      4082        54  DOPC      C317            0.4824747090       25.2438855517       -0.8478668106  MEMB      26              0.0000000000
      4083        54  DOPC      H17X            1.3326618731       24.5942588548       -0.5487202682  MEMB      26              0.0000000000
      4084        54  DOPC      H17Y           -0.4577472123       24.8355011572       -0.4194668820  MEMB      26              0.0000000000
      4085        54  DOPC      C318            0.3758586100       25.0523656639       -2.3432498592  MEMB      26              0.0000000000
      4086        54  DOPC      H18X            0.2849902657       26.0737346825       -2.7708800165  MEMB      26              0.0000000000
      4087        54  DOPC      H18Y            1.3104301509       24.5574421983       -2.6837602973  MEMB      26              0.0000000000
      4088        54  DOPC      H18Z           -0.5401031158       24.4626790178       -2.5614357197  MEMB      26              0.0000000000
      4089        55  DOPC      N              10.6372920404      -26.0361784903       20.2498197854  MEMB      27              0.0000000000
      4090        55  DOPC      C12             9.2646459876      -26.3212899829       20.8165624773  MEMB      27              0.0000000000
      4091        55  DOPC      H12A            9.1317722186      -25.3936615859       21.3534517625  MEMB      27              0.0000000000
      4092        55  DOPC      H12B            9.2943048392      -27.2055052292       21.4359845032  MEMB      27              0.0000000000
      4093        55  DOPC      C13            10.7962480232      -24.5826881106       19.8689664683  MEMB      27              0.0000000000
      4094        55  DOPC      H13A           11.5915036815      -24.5345850630       19.1398199426  MEMB      27              0.0000000000
      4095        55  DOPC      H13B            9.8792609841      -24.3095991839       19.3680101649  MEMB      27              0.0000000000
      4096        55  DOPC      H13C           10.9660922915      -24.0048223753       20.7654173396  MEMB      27              0.0000000000
      4097        55  DOPC      C14            10.9320825175      -26.9677195111       19.0583902518  MEMB      27              0.0000000000
      4098        55  DOPC      H14A           10.7667806986      -27.9754560147       19.4098762807  MEMB      27              0.0000000000
      4099        55  DOPC      H14B           10.2741940935      -26.6056810866       18.2821745303  MEMB      27              0.0000000000
      4100        55  DOPC      H14C           11.9878230306      -26.9291815034       18.8340539435  MEMB      27              0.0000000000
      4101        55  DOPC      C15            11.6802814167      -26.4028995021       21.2740488106  MEMB      27              0.0000000000
      4102        55  DOPC      H15A           11.5020286795      -27.4183551660       21.5957255897  MEMB      27              0.0000000000
      4103        55  DOPC      H15B           11.5563340711      -25.6058797992       21.9922386966  MEMB      27              0.0000000000
      4104        55  DOPC      H15C           12.6601519855      -26.1522489390       20.8953298025  MEMB      27              0.0000000000
      4105        55  DOPC      C11             8.1184647342      -26.4326518918       19.8073992449  MEMB      27              0.0000000000
      4106        55  DOPC      H11A            7.8270739678      -27.5000268821       19.7067855722  MEMB      27              0.0000000000
      4107        55  DOPC      H11B            7.2911701357      -25.8684557019       20.2886344905  MEMB      27              0.0000000000
      4108        55  DOPC      P               7.0730626018      -25.6517044798       17.5762257246  MEMB      27              0.0000000000
      4109        55  DOPC      O13             6.5700177495      -24.3496201124       17.9611588287  MEMB      27              0.0000000000
      4110        55  DOPC      O14             6.0129093921      -26.6880485776       17.6697404270  MEMB      27              0.0000000000
      4111        55  DOPC      O12             8.3411817497      -25.9474344795       18.5091206078  MEMB      27              0.0000000000
      4112        55  DOPC      O11             7.8122018429      -25.6698983634       16.2085673788  MEMB      27              0.0000000000
      4113        55  DOPC      C1              8.9620539446      -24.9369191804       16.0419828187  MEMB      27              0.0000000000
      4114        55  DOPC      HA              9.6330176890      -25.5534340780       15.4063429241  MEMB      27              0.0000000000
      4115        55  DOPC      HB              9.5708236072      -24.6319034171       16.9198700054  MEMB      27              0.0000000000
      4116        55  DOPC      C2              8.6923951768      -23.5915747360       15.3314007530  MEMB      27              0.0000000000
      4117        55  DOPC      HS              7.9945362011      -23.0583221371       16.0118091212  MEMB      27              0.0000000000
      4118        55  DOPC      O21             8.1355044600      -23.8301446823       14.0497959989  MEMB      27              0.0000000000
      4119        55  DOPC      C21             7.3940010997      -22.9164516271       13.5611642938  MEMB      27              0.0000000000
      4120        55  DOPC      O22             6.9767914211      -21.8984114609       14.0123997122  MEMB      27              0.0000000000
      4121        55  DOPC      C22             7.2338213566      -23.3480267663       12.0979204932  MEMB      27              0.0000000000
      4122        55  DOPC      H2R             8.1932424550      -23.7776097148       11.7383506353  MEMB      27              0.0000000000
      4123        55  DOPC      H2S             7.2329748584      -22.3413622865       11.6278709068  MEMB      27              0.0000000000
      4124        55  DOPC      C3              9.9528323279      -22.7847896656       15.2376529961  MEMB      27              0.0000000000
      4125        55  DOPC      HX             10.2922709040      -22.4509745186       16.2414806333  MEMB      27              0.0000000000
      4126        55  DOPC      HY              9.8000066368      -21.8051033703       14.7364743403  MEMB      27              0.0000000000
      4127        55  DOPC      O31            11.0645151998      -23.5774884293       14.6610455563  MEMB      27              0.0000000000
      4128        55  DOPC      C31            11.5313033310      -23.1515554950       13.4727795832  MEMB      27              0.0000000000
      4129        55  DOPC      O32            11.2033566462      -22.2538183650       12.7698307363  MEMB      27              0.0000000000
      4130        55  DOPC      C32            12.8358274287      -23.9865471765       13.2301446026  MEMB      27              0.0000000000
      4131        55  DOPC      H2X            13.1171871941      -23.9064054752       12.1583541591  MEMB      27              0.0000000000
      4132        55  DOPC      H2Y            13.6566834109      -23.4833452031       13.7844946595  MEMB      27              0.0000000000
      4133        55  DOPC      C23             6.0510447177      -24.2681124758       11.8322378512  MEMB      27              0.0000000000
      4134        55  DOPC      H3R             5.1143169961      -23.8146270156       12.2210992803  MEMB      27              0.0000000000
      4135        55  DOPC      H3S             6.2014826934      -25.1866109780       12.4389089867  MEMB      27              0.0000000000
      4136        55  DOPC      C24             5.8314044928      -24.6819820618       10.3812291505  MEMB      27              0.0000000000
      4137        55  DOPC      H4R             4.8409682723      -25.1827578957       10.4320285259  MEMB      27              0.0000000000
      4138        55  DOPC      H4S             6.6450525403      -25.3445594441       10.0161415333  MEMB      27              0.0000000000
      4139        55  DOPC      C25             5.9053760452      -23.4842458528        9.3759693680  MEMB      27              0.0000000000
      4140        55  DOPC      H5R             6.9178200610      -23.0320605403        9.4452981533  MEMB      27              0.0000000000
      4141        55  DOPC      H5S             5.2310320257      -22.6777624472        9.7353654787  MEMB      27              0.0000000000
      4142        55  DOPC      C26             5.6556150573      -23.9109721176        7.9572100864  MEMB      27              0.0000000000
      4143        55  DOPC      H6R             5.6994453038      -23.0247022931        7.2886848492  MEMB      27              0.0000000000
      4144        55  DOPC      H6S             4.6051321252      -24.2403107636        7.8077345102  MEMB      27              0.0000000000
      4145        55  DOPC      C27             6.4534279960      -25.1973594235        7.4187398470  MEMB      27              0.0000000000
      4146        55  DOPC      H7R             6.0634614804      -26.0807417347        7.9681779078  MEMB      27              0.0000000000
      4147        55  DOPC      H7S             7.4971629975      -25.0029182084        7.7460479248  MEMB      27              0.0000000000
      4148        55  DOPC      C28             6.5107236211      -25.2359320742        5.8583318996  MEMB      27              0.0000000000
      4149        55  DOPC      H8R             7.2157153703      -26.0593941318        5.6149848354  MEMB      27              0.0000000000
      4150        55  DOPC      H8S             7.0536880975      -24.3433185255        5.4805076742  MEMB      27              0.0000000000
      4151        55  DOPC      C29             5.1573293003      -25.4574758010        5.1691282076  MEMB      27              0.0000000000
      4152        55  DOPC      H9R             4.6793470479      -26.3900585343        5.5035278503  MEMB      27              0.0000000000
      4153        55  DOPC      C210            4.5347581583      -24.6078367213        4.3376057194  MEMB      27              0.0000000000
      4154        55  DOPC      H10R            3.5038173897      -24.7981833771        4.0045456911  MEMB      27              0.0000000000
      4155        55  DOPC      C211            5.0557858426      -23.2499580020        3.9750177236  MEMB      27              0.0000000000
      4156        55  DOPC      H11R            5.6675075331      -22.7947501741        4.7830422364  MEMB      27              0.0000000000
      4157        55  DOPC      H11S            4.2519762800      -22.5221477788        3.7331423157  MEMB      27              0.0000000000
      4158        55  DOPC      C212            5.8014353139      -23.2734842442        2.6240666282  MEMB      27              0.0000000000
      4159        55  DOPC      H12R            6.2524297129      -22.2586333268        2.6557336804  MEMB      27              0.0000000000
      4160        55  DOPC      H12S            5.1012880593      -23.3259069568        1.7630401155  MEMB      27              0.0000000000
      4161        55  DOPC      C213            6.9147566992      -24.2597927218        2.5150311719  MEMB      27              0.0000000000
      4162        55  DOPC      H13R            6.4975676769      -25.1274170823        1.9605022826  MEMB      27              0.0000000000
      4163        55  DOPC      H13S            7.5085896027      -24.5380691117        3.4118286380  MEMB      27              0.0000000000
      4164        55  DOPC      C214            8.0405430949      -23.7026422256        1.6150216371  MEMB      27              0.0000000000
      4165        55  DOPC      H14R            8.4704146137      -22.7694036167        2.0376289146  MEMB      27              0.0000000000
      4166        55  DOPC      H14S            7.5413299144      -23.5602455136        0.6327631395  MEMB      27              0.0000000000
      4167        55  DOPC      C215            9.1053403298      -24.8425997179        1.4815923056  MEMB      27              0.0000000000
      4168        55  DOPC      H15R            9.5488183594      -24.9523140680        2.4943181911  MEMB      27              0.0000000000
      4169        55  DOPC      H15S            9.9255807926      -24.4986724770        0.8158297658  MEMB      27              0.0000000000
      4170        55  DOPC      C216            8.4318336922      -26.1718486569        1.0056582346  MEMB      27              0.0000000000
      4171        55  DOPC      H16R            7.6558925217      -25.9321481536        0.2475152014  MEMB      27              0.0000000000
      4172        55  DOPC      H16S            8.0103936353      -26.6041660393        1.9382947993  MEMB      27              0.0000000000
      4173        55  DOPC      C217            9.2580933094      -27.2311382992        0.3427613430  MEMB      27              0.0000000000
      4174        55  DOPC      H17R            9.6348606583      -27.0067834475       -0.6780393002  MEMB      27              0.0000000000
      4175        55  DOPC      H17S            8.6594680008      -28.1602865405        0.2302792711  MEMB      27              0.0000000000
      4176        55  DOPC      C218           10.4421945181      -27.6265909777        1.2528347906  MEMB      27              0.0000000000
      4177        55  DOPC      H18R           11.1675435242      -26.7869476831        1.3093029388  MEMB      27              0.0000000000
      4178        55  DOPC      H18S           10.8420909170      -28.6151084728        0.9410064363  MEMB      27              0.0000000000
      4179        55  DOPC      H18T           10.0015891342      -27.7127409359        2.2690861088  MEMB      27              0.0000000000
      4180        55  DOPC      C33            12.6103760999      -25.4444288380       13.6134565519  MEMB      27              0.0000000000
      4181        55  DOPC      H3X            12.5475836482      -25.5252388170       14.7197330861  MEMB      27              0.0000000000
      4182        55  DOPC      H3Y            13.5418550291      -25.9627868955       13.3004505011  MEMB      27              0.0000000000
      4183        55  DOPC      C34            11.4324229038      -26.1829987893       12.8802127990  MEMB      27              0.0000000000
      4184        55  DOPC      H4X            10.5606788667      -25.5415298392       13.1310125022  MEMB      27              0.0000000000
      4185        55  DOPC      H4Y            11.3933382908      -27.2541237891       13.1725902456  MEMB      27              0.0000000000
      4186        55  DOPC      C35            11.4243922950      -26.0691717656       11.3579913218  MEMB      27              0.0000000000
      4187        55  DOPC      H5X            11.2190903131      -25.0222535297       11.0479357505  MEMB      27              0.0000000000
      4188        55  DOPC      H5Y            10.5230381054      -26.5694769068       10.9437735815  MEMB      27              0.0000000000
      4189        55  DOPC      C36            12.6794835414      -26.5906757378       10.5688209403  MEMB      27              0.0000000000
      4190        55  DOPC      H6X            13.5294674855      -25.9534260814       10.8940301985  MEMB      27              0.0000000000
      4191        55  DOPC      H6Y            12.8782607777      -27.6697796282       10.7430154908  MEMB      27              0.0000000000
      4192        55  DOPC      C37            12.6084347622      -26.5025701960        9.0206754918  MEMB      27              0.0000000000
      4193        55  DOPC      H7X            12.4540038878      -25.4273252273        8.7876070069  MEMB      27              0.0000000000
      4194        55  DOPC      H7Y            13.5668297760      -26.8168929459        8.5548411651  MEMB      27              0.0000000000
      4195        55  DOPC      C38            11.4733862733      -27.3687377351        8.4312760407  MEMB      27              0.0000000000
      4196        55  DOPC      H8X            10.4618937686      -27.2023749910        8.8596768437  MEMB      27              0.0000000000
      4197        55  DOPC      H8Y            11.6969272017      -28.4328360195        8.6594100411  MEMB      27              0.0000000000
      4198        55  DOPC      C39            11.4731112136      -27.3860372300        6.9182723334  MEMB      27              0.0000000000
      4199        55  DOPC      H9X            11.9241806046      -28.2228860448        6.3649011087  MEMB      27              0.0000000000
      4200        55  DOPC      C310           11.0001435056      -26.3279651496        6.1942463790  MEMB      27              0.0000000000
      4201        55  DOPC      H10X           11.0950088116      -26.3547682963        5.0986729210  MEMB      27              0.0000000000
      4202        55  DOPC      C311           10.3351897051      -25.0472008805        6.6792513684  MEMB      27              0.0000000000
      4203        55  DOPC      H11X           10.2008038430      -25.1006780175        7.7807968294  MEMB      27              0.0000000000
      4204        55  DOPC      H11Y            9.3139736113      -24.7881034604        6.3266794359  MEMB      27              0.0000000000
      4205        55  DOPC      C312           11.2502606181      -23.8774780327        6.2613230509  MEMB      27              0.0000000000
      4206        55  DOPC      H12X           12.3138830594      -24.1670577439        6.1228610302  MEMB      27              0.0000000000
      4207        55  DOPC      H12Y           11.2278518312      -23.2902020609        7.2041514423  MEMB      27              0.0000000000
      4208        55  DOPC      C313           10.9298788021      -23.2926281113        4.8679090195  MEMB      27              0.0000000000
      4209        55  DOPC      H13X           10.7410827347      -24.1642834624        4.2054189757  MEMB      27              0.0000000000
      4210        55  DOPC      H13Y            9.9970042112      -22.6895352371        4.8864786520  MEMB      27              0.0000000000
      4211        55  DOPC      C314           12.1048280148      -22.4979817654        4.2919380147  MEMB      27              0.0000000000
      4212        55  DOPC      H14X           12.6248164559      -21.8358363460        5.0168493913  MEMB      27              0.0000000000
      4213        55  DOPC      H14Y           12.8307021772      -23.3303577839        4.1712006904  MEMB      27              0.0000000000
      4214        55  DOPC      C315           11.8962323380      -22.0741055173        2.8713151783  MEMB      27              0.0000000000
      4215        55  DOPC      H15X           11.5073643871      -22.8927311200        2.2286995866  MEMB      27              0.0000000000
      4216        55  DOPC      H15Y           12.9265049313      -21.8916482632        2.4977258786  MEMB      27              0.0000000000
      4217        55  DOPC      C316           10.9933591136      -20.8028618312        2.7266323733  MEMB      27              0.0000000000
      4218        55  DOPC      H16X            9.9918508173      -21.0785602180        3.1207039428  MEMB      27              0.0000000000
      4219        55  DOPC      H16Y           11.4810361821      -20.0585693909        3.3918542807  MEMB      27              0.0000000000
      4220        55  DOPC      C317           10.9794955317      -20.3236765680        1.2475371609  MEMB      27              0.0000000000
      4221        55  DOPC      H17X           12.0121230415      -19.9987416456        0.9976988582  MEMB      27              0.0000000000
      4222        55  DOPC      H17Y           10.8576300264      -21.2233658852        0.6072024004  MEMB      27              0.0000000000
      4223        55  DOPC      C318           10.0903731869      -19.1547604971        0.9481507914  MEMB      27              0.0000000000
      4224        55  DOPC      H18X            9.1085067666      -19.4994966340        1.3372730825  MEMB      27              0.0000000000
      4225        55  DOPC      H18Y           10.2284199762      -18.1689557240        1.4415599023  MEMB      27              0.0000000000
      4226        55  DOPC      H18Z           10.0855492152      -19.0048035668       -0.1526711653  MEMB      27              0.0000000000
      4227        56  DOPC      N             -26.9066605496        7.1522280205       20.9348980332  MEMB      28              0.0000000000
      4228        56  DOPC      C12           -26.6373740335        7.5003529113       19.4677464156  MEMB      28              0.0000000000
      4229        56  DOPC      H12A          -25.7774853814        8.1482582242       19.3828342129  MEMB      28              0.0000000000
      4230        56  DOPC      H12B          -27.5563737239        7.8722214522       19.0393152127  MEMB      28              0.0000000000
      4231        56  DOPC      C13           -27.4214408789        8.4501173641       21.4786580283  MEMB      28              0.0000000000
      4232        56  DOPC      H13A          -28.4503670684        8.6366120476       21.2086010411  MEMB      28              0.0000000000
      4233        56  DOPC      H13B          -27.4684894111        8.4600576262       22.5575868510  MEMB      28              0.0000000000
      4234        56  DOPC      H13C          -26.7075012422        9.1942999513       21.1579051310  MEMB      28              0.0000000000
      4235        56  DOPC      C14           -25.5581340195        6.8653390812       21.6074093024  MEMB      28              0.0000000000
      4236        56  DOPC      H14A          -25.2397817876        5.8455514961       21.4490268081  MEMB      28              0.0000000000
      4237        56  DOPC      H14B          -24.7668167053        7.5848378539       21.4572802788  MEMB      28              0.0000000000
      4238        56  DOPC      H14C          -25.8285235778        6.9672611827       22.6480350176  MEMB      28              0.0000000000
      4239        56  DOPC      C15           -27.8697052499        5.9800643496       21.0749143832  MEMB      28              0.0000000000
      4240        56  DOPC      H15A          -28.6574678364        6.2219630633       20.3768347311  MEMB      28              0.0000000000
      4241        56  DOPC      H15B          -28.3458704654        5.9411279744       22.0434959873  MEMB      28              0.0000000000
      4242        56  DOPC      H15C          -27.4458620806        5.0229682193       20.8089747106  MEMB      28              0.0000000000
      4243        56  DOPC      C11           -26.2706859951        6.1992176086       18.6071798696  MEMB      28              0.0000000000
      4244        56  DOPC      H11A          -25.5445555319        6.5204317132       17.8300846913  MEMB      28              0.0000000000
      4245        56  DOPC      H11B          -25.7074943325        5.4549159424       19.2098002217  MEMB      28              0.0000000000
      4246        56  DOPC      P             -28.4971318782        6.0628402021       17.1695119610  MEMB      28              0.0000000000
      4247        56  DOPC      O13           -29.0773501495        7.2351113186       17.8867624764  MEMB      28              0.0000000000
      4248        56  DOPC      O14           -29.4956975822        4.9585844187       16.8242553437  MEMB      28              0.0000000000
      4249        56  DOPC      O12           -27.2973373278        5.4836933650       18.0606608421  MEMB      28              0.0000000000
      4250        56  DOPC      O11           -27.7532668388        6.5325966300       15.8880033480  MEMB      28              0.0000000000
      4251        56  DOPC      C1            -26.5927033633        5.7426197194       15.4910806390  MEMB      28              0.0000000000
      4252        56  DOPC      HA            -26.3096924087        4.8682296753       16.1153143841  MEMB      28              0.0000000000
      4253        56  DOPC      HB            -25.6644348855        6.3021282111       15.7351891103  MEMB      28              0.0000000000
      4254        56  DOPC      C2            -26.6226352100        5.4194137588       13.9795988010  MEMB      28              0.0000000000
      4255        56  DOPC      HS            -25.6078404642        5.1782639689       13.5970293070  MEMB      28              0.0000000000
      4256        56  DOPC      O21           -27.1660574994        6.4632938458       13.1189908034  MEMB      28              0.0000000000
      4257        56  DOPC      C21           -26.6532027145        7.6678418731       13.0781206697  MEMB      28              0.0000000000
      4258        56  DOPC      O22           -25.7338309699        8.1655104428       13.6695141259  MEMB      28              0.0000000000
      4259        56  DOPC      C22           -27.4364086564        8.3741775381       11.9276111308  MEMB      28              0.0000000000
      4260        56  DOPC      H2R           -26.9427455149        8.0788574643       10.9771356599  MEMB      28              0.0000000000
      4261        56  DOPC      H2S           -27.3231634467        9.4773801312       11.9942501295  MEMB      28              0.0000000000
      4262        56  DOPC      C3            -27.4575750729        4.0890576335       13.7037299114  MEMB      28              0.0000000000
      4263        56  DOPC      HX            -28.4979821068        4.3453026842       13.9973501609  MEMB      28              0.0000000000
      4264        56  DOPC      HY            -27.0947546209        3.2007370455       14.2637023293  MEMB      28              0.0000000000
      4265        56  DOPC      O31           -27.6152029255        3.9476449128       12.2662801091  MEMB      28              0.0000000000
      4266        56  DOPC      C31           -26.8590932702        3.0083520052       11.7742432423  MEMB      28              0.0000000000
      4267        56  DOPC      O32           -26.0452405789        2.3238434035       12.3307216552  MEMB      28              0.0000000000
      4268        56  DOPC      C32           -27.2726081146        2.8373270865       10.2777971943  MEMB      28              0.0000000000
      4269        56  DOPC      H2X           -26.5866903785        2.1820493479        9.6994809989  MEMB      28              0.0000000000
      4270        56  DOPC      H2Y           -28.2391102547        2.2920467043       10.2242796135  MEMB      28              0.0000000000
      4271        56  DOPC      C23           -28.8325431995        7.9461618546       11.7706445951  MEMB      28              0.0000000000
      4272        56  DOPC      H3R           -29.2306373248        7.6557494722       12.7663868117  MEMB      28              0.0000000000
      4273        56  DOPC      H3S           -28.9486502025        6.9796460508       11.2352129129  MEMB      28              0.0000000000
      4274        56  DOPC      C24           -29.5721685141        9.0023849392       10.8973198841  MEMB      28              0.0000000000
      4275        56  DOPC      H4R           -28.9304569682        9.1066705162        9.9964033380  MEMB      28              0.0000000000
      4276        56  DOPC      H4S           -29.6684599606        9.9331294620       11.4962886837  MEMB      28              0.0000000000
      4277        56  DOPC      C25           -31.0119752984        8.7179453722       10.5037841894  MEMB      28              0.0000000000
      4278        56  DOPC      H5R           -31.4352443997        9.6734430238       10.1267058431  MEMB      28              0.0000000000
      4279        56  DOPC      H5S           -31.5511540656        8.2033903764       11.3277014437  MEMB      28              0.0000000000
      4280        56  DOPC      C26           -31.0043465568        7.6948581513        9.2800782739  MEMB      28              0.0000000000
      4281        56  DOPC      H6R           -30.5952998148        6.7526716603        9.7035005672  MEMB      28              0.0000000000
      4282        56  DOPC      H6S           -30.4226591037        8.0600096479        8.4067941552  MEMB      28              0.0000000000
      4283        56  DOPC      C27           -32.5019341134        7.4718091881        8.8551550746  MEMB      28              0.0000000000
      4284        56  DOPC      H7R           -32.8233748932        8.4318469800        8.3976353223  MEMB      28              0.0000000000
      4285        56  DOPC      H7S           -32.9578227748        7.3091417680        9.8551675764  MEMB      28              0.0000000000
      4286        56  DOPC      C28           -32.7293674399        6.3731750978        7.8468924924  MEMB      28              0.0000000000
      4287        56  DOPC      H8R           -33.7891826586        6.2873941631        7.5247834929  MEMB      28              0.0000000000
      4288        56  DOPC      H8S           -32.6875297467        5.3154950981        8.1843589518  MEMB      28              0.0000000000
      4289        56  DOPC      C29           -31.9280082503        6.4271687123        6.5769651423  MEMB      28              0.0000000000
      4290        56  DOPC      H9R           -31.9056037797        7.4621346576        6.2050204077  MEMB      28              0.0000000000
      4291        56  DOPC      C210          -31.4549308490        5.4374753411        5.7601366604  MEMB      28              0.0000000000
      4292        56  DOPC      H10R          -30.9379072578        5.6448772942        4.8116267146  MEMB      28              0.0000000000
      4293        56  DOPC      C211          -31.7730714426        3.9543499732        6.1406218137  MEMB      28              0.0000000000
      4294        56  DOPC      H11R          -32.1361910593        3.4745040679        5.2066982887  MEMB      28              0.0000000000
      4295        56  DOPC      H11S          -32.6467485553        3.9233047313        6.8262209260  MEMB      28              0.0000000000
      4296        56  DOPC      C212          -30.7273597933        3.1345759025        6.8905535428  MEMB      28              0.0000000000
      4297        56  DOPC      H12R          -30.9859697271        2.0653989802        7.0464444620  MEMB      28              0.0000000000
      4298        56  DOPC      H12S          -30.5702325560        3.6863327126        7.8419712622  MEMB      28              0.0000000000
      4299        56  DOPC      C213          -29.4448638095        3.1861376127        6.0199375710  MEMB      28              0.0000000000
      4300        56  DOPC      H13R          -28.9413577618        4.1497215531        6.2486483939  MEMB      28              0.0000000000
      4301        56  DOPC      H13S          -29.8594677887        3.1440347468        4.9900582595  MEMB      28              0.0000000000
      4302        56  DOPC      C214          -28.4946014590        1.9760590699        6.0703404145  MEMB      28              0.0000000000
      4303        56  DOPC      H14R          -29.1138938397        1.0536740868        6.0723790013  MEMB      28              0.0000000000
      4304        56  DOPC      H14S          -27.9222940752        2.0027506088        7.0222190607  MEMB      28              0.0000000000
      4305        56  DOPC      C215          -27.5569395561        1.7970925040        4.8053398117  MEMB      28              0.0000000000
      4306        56  DOPC      H15R          -28.2769570352        1.7010746758        3.9646987942  MEMB      28              0.0000000000
      4307        56  DOPC      H15S          -26.9885468063        0.8488109668        4.9149415877  MEMB      28              0.0000000000
      4308        56  DOPC      C216          -26.5502266666        2.8785369311        4.3627043967  MEMB      28              0.0000000000
      4309        56  DOPC      H16R          -25.5583010809        2.7945503419        4.8560099719  MEMB      28              0.0000000000
      4310        56  DOPC      H16S          -27.0380164653        3.8190718021        4.6970336006  MEMB      28              0.0000000000
      4311        56  DOPC      C217          -26.3738235772        2.8028395460        2.7904529588  MEMB      28              0.0000000000
      4312        56  DOPC      H17R          -27.2945960619        2.5205935231        2.2365244526  MEMB      28              0.0000000000
      4313        56  DOPC      H17S          -25.7260130723        1.9009071891        2.7560965790  MEMB      28              0.0000000000
      4314        56  DOPC      C218          -25.8108195663        3.9855175474        1.9551262941  MEMB      28              0.0000000000
      4315        56  DOPC      H18R          -24.7469813471        4.2656716619        2.1103125411  MEMB      28              0.0000000000
      4316        56  DOPC      H18S          -26.5954350692        4.7720919146        1.9543893415  MEMB      28              0.0000000000
      4317        56  DOPC      H18T          -25.7720910992        3.6259322871        0.9046405941  MEMB      28              0.0000000000
      4318        56  DOPC      C33           -27.4445974250        4.0928633224        9.4564736907  MEMB      28              0.0000000000
      4319        56  DOPC      H3X           -27.5807303532        4.9894829400       10.0982390414  MEMB      28              0.0000000000
      4320        56  DOPC      H3Y           -28.2961142268        4.0051101628        8.7482790826  MEMB      28              0.0000000000
      4321        56  DOPC      C34           -26.2880543168        4.2004421147        8.4269386147  MEMB      28              0.0000000000
      4322        56  DOPC      H4X           -26.1591473840        3.3308752409        7.7475588747  MEMB      28              0.0000000000
      4323        56  DOPC      H4Y           -25.2934863655        4.2983881726        8.9122864123  MEMB      28              0.0000000000
      4324        56  DOPC      C35           -26.4721456921        5.4309204951        7.5410932505  MEMB      28              0.0000000000
      4325        56  DOPC      H5X           -27.1226998261        5.1088196666        6.7000516095  MEMB      28              0.0000000000
      4326        56  DOPC      H5Y           -25.5226931428        5.5751358742        6.9824675054  MEMB      28              0.0000000000
      4327        56  DOPC      C36           -26.9982699355        6.7022243478        8.1765786368  MEMB      28              0.0000000000
      4328        56  DOPC      H6X           -28.0249727465        6.6341404123        8.5955862002  MEMB      28              0.0000000000
      4329        56  DOPC      H6Y           -26.3638333192        6.9886362427        9.0424770618  MEMB      28              0.0000000000
      4330        56  DOPC      C37           -26.9155082730        7.8746665684        7.1964126622  MEMB      28              0.0000000000
      4331        56  DOPC      H7X           -25.8691202608        7.8986381737        6.8238294190  MEMB      28              0.0000000000
      4332        56  DOPC      H7Y           -27.5797728038        7.7248394638        6.3185600650  MEMB      28              0.0000000000
      4333        56  DOPC      C38           -27.2246133802        9.2532574038        7.8633121965  MEMB      28              0.0000000000
      4334        56  DOPC      H8X           -26.5871520017        9.4038606406        8.7606881078  MEMB      28              0.0000000000
      4335        56  DOPC      H8Y           -28.2527151129        9.0376868888        8.2250542742  MEMB      28              0.0000000000
      4336        56  DOPC      C39           -27.1274970055       10.4331931135        6.9102678029  MEMB      28              0.0000000000
      4337        56  DOPC      H9X           -26.1317966333       10.8906009053        6.8135242219  MEMB      28              0.0000000000
      4338        56  DOPC      C310          -28.1079210235       11.0608352019        6.2016266299  MEMB      28              0.0000000000
      4339        56  DOPC      H10X          -27.7719936217       11.6314685701        5.3232585131  MEMB      28              0.0000000000
      4340        56  DOPC      C311          -29.5388046868       10.6056555282        6.1891859571  MEMB      28              0.0000000000
      4341        56  DOPC      H11X          -30.0508218175       11.4797612960        6.6453635788  MEMB      28              0.0000000000
      4342        56  DOPC      H11Y          -29.7166341302        9.7171156131        6.8319880807  MEMB      28              0.0000000000
      4343        56  DOPC      C312          -30.3048701457       10.1672402675        4.8746201706  MEMB      28              0.0000000000
      4344        56  DOPC      H12X          -30.4033590600       11.0741667736        4.2405022029  MEMB      28              0.0000000000
      4345        56  DOPC      H12Y          -31.3339047319        9.8954278334        5.1932536918  MEMB      28              0.0000000000
      4346        56  DOPC      C313          -29.6320014271        8.9661613773        4.2273136607  MEMB      28              0.0000000000
      4347        56  DOPC      H13X          -28.6025279777        9.3177105044        4.0016623351  MEMB      28              0.0000000000
      4348        56  DOPC      H13Y          -29.5129046425        8.1444881489        4.9655479254  MEMB      28              0.0000000000
      4349        56  DOPC      C314          -30.3385285410        8.3050227026        3.0044830790  MEMB      28              0.0000000000
      4350        56  DOPC      H14X          -31.2621160731        7.7712698863        3.3149907626  MEMB      28              0.0000000000
      4351        56  DOPC      H14Y          -30.7271307628        9.0800730630        2.3097846847  MEMB      28              0.0000000000
      4352        56  DOPC      C315          -29.3987399219        7.3144596813        2.2812394223  MEMB      28              0.0000000000
      4353        56  DOPC      H15X          -29.1345517090        6.4946956136        2.9830320507  MEMB      28              0.0000000000
      4354        56  DOPC      H15Y          -28.5310549901        7.8804936006        1.8799300003  MEMB      28              0.0000000000
      4355        56  DOPC      C316          -30.1860886343        6.6886345184        1.0370664869  MEMB      28              0.0000000000
      4356        56  DOPC      H16X          -30.9508241006        6.1441264631        1.6312133156  MEMB      28              0.0000000000
      4357        56  DOPC      H16Y          -30.5812797806        7.5806372544        0.5055805116  MEMB      28              0.0000000000
      4358        56  DOPC      C317          -29.4652061232        5.6813619207        0.2570989123  MEMB      28              0.0000000000
      4359        56  DOPC      H17X          -28.8632837752        5.0307998354        0.9270087902  MEMB      28              0.0000000000
      4360        56  DOPC      H17Y          -30.0777710015        4.9876560783       -0.3576023337  MEMB      28              0.0000000000
      4361        56  DOPC      C318          -28.5486369552        6.3606123019       -0.7435031296  MEMB      28              0.0000000000
      4362        56  DOPC      H18X          -29.1788109013        6.7154109032       -1.5869002216  MEMB      28              0.0000000000
      4363        56  DOPC      H18Y          -28.0436793432        7.2768425502       -0.3695226792  MEMB      28              0.0000000000
      4364        56  DOPC      H18Z          -27.7921785602        5.6833518651       -1.1945132151  MEMB      28              0.0000000000
      4365        57  DOPC      N              28.0851770820        1.0114368002       20.0269102586  MEMB      29              0.0000000000
      4366        57  DOPC      C12            28.1141525397       -0.4708706937       19.5301970969  MEMB      29              0.0000000000
      4367        57  DOPC      H12A           27.5352444738       -1.0681290812       20.2190713717  MEMB      29              0.0000000000
      4368        57  DOPC      H12B           29.1075775853       -0.8822404777       19.6315966053  MEMB      29              0.0000000000
      4369        57  DOPC      C13            28.7824490679        0.9696848549       21.4101344056  MEMB      29              0.0000000000
      4370        57  DOPC      H13A           28.2303594658        1.6184656994       22.0739721830  MEMB      29              0.0000000000
      4371        57  DOPC      H13B           28.6098214817        0.0704285542       21.9827929623  MEMB      29              0.0000000000
      4372        57  DOPC      H13C           29.7942912524        1.3412826592       21.3431254677  MEMB      29              0.0000000000
      4373        57  DOPC      C14            26.6345540552        1.3857991812       20.2816583568  MEMB      29              0.0000000000
      4374        57  DOPC      H14A           26.8961051806        2.3812527662       20.6088628969  MEMB      29              0.0000000000
      4375        57  DOPC      H14B           26.0210690032        1.2832855762       19.3987500032  MEMB      29              0.0000000000
      4376        57  DOPC      H14C           26.2453016888        0.7970300958       21.0991139208  MEMB      29              0.0000000000
      4377        57  DOPC      C15            28.7019986080        2.0097104928       19.0651372406  MEMB      29              0.0000000000
      4378        57  DOPC      H15A           28.1203414091        1.9889942066       18.1553868515  MEMB      29              0.0000000000
      4379        57  DOPC      H15B           29.7246037129        1.7415749442       18.8442703354  MEMB      29              0.0000000000
      4380        57  DOPC      H15C           28.5746711928        3.0140357336       19.4413267386  MEMB      29              0.0000000000
      4381        57  DOPC      C11            27.6120570172       -0.6968909300       18.0931301134  MEMB      29              0.0000000000
      4382        57  DOPC      H11A           28.2290249258        0.0403863321       17.5362693916  MEMB      29              0.0000000000
      4383        57  DOPC      H11B           27.7879478982       -1.7293221142       17.7223616036  MEMB      29              0.0000000000
      4384        57  DOPC      P              25.1043455807       -1.3839308829       18.2283844595  MEMB      29              0.0000000000
      4385        57  DOPC      O13            23.8676113900       -0.6557921946       18.6102799241  MEMB      29              0.0000000000
      4386        57  DOPC      O14            25.5425518076       -2.3938380272       19.1371124011  MEMB      29              0.0000000000
      4387        57  DOPC      O12            26.2801574814       -0.3638533804       17.7979563150  MEMB      29              0.0000000000
      4388        57  DOPC      O11            24.9347458382       -2.1357245746       16.8190994267  MEMB      29              0.0000000000
      4389        57  DOPC      C1             24.9135837866       -1.2775653866       15.6422268634  MEMB      29              0.0000000000
      4390        57  DOPC      HA             25.3467454486       -0.2563143036       15.7033690709  MEMB      29              0.0000000000
      4391        57  DOPC      HB             23.8259067023       -1.2631293826       15.4162374543  MEMB      29              0.0000000000
      4392        57  DOPC      C2             25.5734270493       -2.0625781227       14.5237074801  MEMB      29              0.0000000000
      4393        57  DOPC      HS             25.1493075429       -3.0848262485       14.6209313352  MEMB      29              0.0000000000
      4394        57  DOPC      O21            26.9520485082       -2.1790656174       14.8087215904  MEMB      29              0.0000000000
      4395        57  DOPC      C21            27.6052350632       -3.1946048446       14.1838315421  MEMB      29              0.0000000000
      4396        57  DOPC      O22            27.0237364983       -4.1140297384       13.5877424521  MEMB      29              0.0000000000
      4397        57  DOPC      C22            29.0509441148       -3.0407008149       14.3879006001  MEMB      29              0.0000000000
      4398        57  DOPC      H2R            29.4907139889       -4.0299040067       14.1380991452  MEMB      29              0.0000000000
      4399        57  DOPC      H2S            29.1954706582       -2.8118268155       15.4654208179  MEMB      29              0.0000000000
      4400        57  DOPC      C3             25.3301407277       -1.3928515978       13.1307460337  MEMB      29              0.0000000000
      4401        57  DOPC      HX             24.2569024165       -1.1400915234       12.9943898869  MEMB      29              0.0000000000
      4402        57  DOPC      HY             25.5957636740       -2.1026574523       12.3183781974  MEMB      29              0.0000000000
      4403        57  DOPC      O31            26.0676895931       -0.1887584738       12.8832815983  MEMB      29              0.0000000000
      4404        57  DOPC      C31            25.5530080320        0.9570419907       13.2259833331  MEMB      29              0.0000000000
      4405        57  DOPC      O32            24.4884834319        1.1783309676       13.8188466820  MEMB      29              0.0000000000
      4406        57  DOPC      C32            26.4055527447        2.1289835228       12.7770946142  MEMB      29              0.0000000000
      4407        57  DOPC      H2X            26.5616043021        2.7071459423       13.7128814765  MEMB      29              0.0000000000
      4408        57  DOPC      H2Y            27.3233796910        1.7022987562       12.3189953684  MEMB      29              0.0000000000
      4409        57  DOPC      C23            29.6260241366       -2.0347823264       13.4318914516  MEMB      29              0.0000000000
      4410        57  DOPC      H3R            30.7003556817       -1.8199350050       13.6162088523  MEMB      29              0.0000000000
      4411        57  DOPC      H3S            29.1586612250       -1.0353900056       13.5626899519  MEMB      29              0.0000000000
      4412        57  DOPC      C24            29.4719369717       -2.5254588196       11.9805129077  MEMB      29              0.0000000000
      4413        57  DOPC      H4R            28.4292345265       -2.3474262523       11.6408111733  MEMB      29              0.0000000000
      4414        57  DOPC      H4S            29.7778979626       -3.5790657893       11.8055232211  MEMB      29              0.0000000000
      4415        57  DOPC      C25            30.4078469600       -1.6830382796       11.1507364545  MEMB      29              0.0000000000
      4416        57  DOPC      H5R            30.6549805356       -2.1905340572       10.1938168104  MEMB      29              0.0000000000
      4417        57  DOPC      H5S            31.3974911851       -1.6165542118       11.6512411161  MEMB      29              0.0000000000
      4418        57  DOPC      C26            30.0334635874       -0.2445657913       10.7280787868  MEMB      29              0.0000000000
      4419        57  DOPC      H6R            30.8124835428        0.2487709367       10.1083464332  MEMB      29              0.0000000000
      4420        57  DOPC      H6S            29.8984028485        0.1929074554       11.7403517336  MEMB      29              0.0000000000
      4421        57  DOPC      C27            28.7536262642       -0.2251322937        9.8387196821  MEMB      29              0.0000000000
      4422        57  DOPC      H7R            28.3872906313        0.8223671685        9.8922343478  MEMB      29              0.0000000000
      4423        57  DOPC      H7S            27.9398345787       -0.8950171716       10.1898868828  MEMB      29              0.0000000000
      4424        57  DOPC      C28            28.9994164849       -0.5753947552        8.3772238846  MEMB      29              0.0000000000
      4425        57  DOPC      H8R            29.6495036522        0.2238662467        7.9614245569  MEMB      29              0.0000000000
      4426        57  DOPC      H8S            28.0635739134       -0.4308961629        7.7961558438  MEMB      29              0.0000000000
      4427        57  DOPC      C29            29.4206005493       -2.0455232132        8.0426590110  MEMB      29              0.0000000000
      4428        57  DOPC      H9R            30.4851484879       -2.1938641396        7.8087084791  MEMB      29              0.0000000000
      4429        57  DOPC      C210           28.5529565159       -3.0278975199        7.7957321629  MEMB      29              0.0000000000
      4430        57  DOPC      H10R           28.9612799130       -4.0030761335        7.4919253927  MEMB      29              0.0000000000
      4431        57  DOPC      C211           27.0927344737       -2.9481603118        7.8237968997  MEMB      29              0.0000000000
      4432        57  DOPC      H11R           26.6045406197       -2.0285800000        8.2115597974  MEMB      29              0.0000000000
      4433        57  DOPC      H11S           26.6989497002       -3.7716690626        8.4571122775  MEMB      29              0.0000000000
      4434        57  DOPC      C212           26.3692451082       -3.2420563792        6.4673552774  MEMB      29              0.0000000000
      4435        57  DOPC      H12R           25.3331170928       -3.0226590169        6.8029517282  MEMB      29              0.0000000000
      4436        57  DOPC      H12S           26.5261869068       -4.2728462050        6.0837373433  MEMB      29              0.0000000000
      4437        57  DOPC      C213           26.5245595098       -2.2207844520        5.3847406464  MEMB      29              0.0000000000
      4438        57  DOPC      H13R           27.4582159767       -2.4294935979        4.8198987077  MEMB      29              0.0000000000
      4439        57  DOPC      H13S           26.6661175705       -1.1949725745        5.7872243087  MEMB      29              0.0000000000
      4440        57  DOPC      C214           25.3700372601       -2.0690813996        4.3527978766  MEMB      29              0.0000000000
      4441        57  DOPC      H14R           25.5975264018       -1.2233824493        3.6691582038  MEMB      29              0.0000000000
      4442        57  DOPC      H14S           24.4208670053       -1.8276533736        4.8773067795  MEMB      29              0.0000000000
      4443        57  DOPC      C215           25.1050732561       -3.4233929163        3.5494318263  MEMB      29              0.0000000000
      4444        57  DOPC      H15R           25.4372853679       -4.2932803155        4.1554443793  MEMB      29              0.0000000000
      4445        57  DOPC      H15S           25.8180529050       -3.3243646595        2.7031607871  MEMB      29              0.0000000000
      4446        57  DOPC      C216           23.6504188250       -3.6966121364        3.0968705584  MEMB      29              0.0000000000
      4447        57  DOPC      H16R           23.1810780115       -3.9938824448        4.0589886890  MEMB      29              0.0000000000
      4448        57  DOPC      H16S           23.6157327586       -4.6054942586        2.4588649053  MEMB      29              0.0000000000
      4449        57  DOPC      C217           22.9171153185       -2.5269089460        2.3588904263  MEMB      29              0.0000000000
      4450        57  DOPC      H17R           22.9398603256       -1.5509231427        2.8892272046  MEMB      29              0.0000000000
      4451        57  DOPC      H17S           21.8521359488       -2.7633199773        2.1485351664  MEMB      29              0.0000000000
      4452        57  DOPC      C218           23.5307275370       -2.2408885272        0.9641749716  MEMB      29              0.0000000000
      4453        57  DOPC      H18R           22.8262576708       -1.6021119692        0.3897129717  MEMB      29              0.0000000000
      4454        57  DOPC      H18S           23.7382270180       -3.2223940277        0.4867741526  MEMB      29              0.0000000000
      4455        57  DOPC      H18T           24.5068864942       -1.7224015022        1.0764514661  MEMB      29              0.0000000000
      4456        57  DOPC      C33            25.5740850723        3.1352239990       11.9161863688  MEMB      29              0.0000000000
      4457        57  DOPC      H3X            24.6812275672        3.4051484928       12.5197317553  MEMB      29              0.0000000000
      4458        57  DOPC      H3Y            25.2135776583        2.6267659281       10.9964984173  MEMB      29              0.0000000000
      4459        57  DOPC      C34            26.3094008006        4.4494888343       11.5641837106  MEMB      29              0.0000000000
      4460        57  DOPC      H4X            26.7500211185        4.8349243927       12.5084370192  MEMB      29              0.0000000000
      4461        57  DOPC      H4Y            25.6253655022        5.2671451168       11.2513664745  MEMB      29              0.0000000000
      4462        57  DOPC      C35            27.3774106105        4.3117833395       10.3967766676  MEMB      29              0.0000000000
      4463        57  DOPC      H5X            28.1208714221        3.4929326596       10.5019935439  MEMB      29              0.0000000000
      4464        57  DOPC      H5Y            27.9545058681        5.2602958142       10.4368588471  MEMB      29              0.0000000000
      4465        57  DOPC      C36            26.7661472844        4.1158939083        8.9481789777  MEMB      29              0.0000000000
      4466        57  DOPC      H6X            26.3855768990        3.0722151863        8.9630845894  MEMB      29              0.0000000000
      4467        57  DOPC      H6Y            25.8866406144        4.7884728253        8.8563830329  MEMB      29              0.0000000000
      4468        57  DOPC      C37            27.7372290228        4.4192423241        7.8146829218  MEMB      29              0.0000000000
      4469        57  DOPC      H7X            27.9265778030        5.5109154947        7.8966438012  MEMB      29              0.0000000000
      4470        57  DOPC      H7Y            28.7163091855        3.9347897481        8.0172402270  MEMB      29              0.0000000000
      4471        57  DOPC      C38            27.2247185186        3.9425145407        6.4541933860  MEMB      29              0.0000000000
      4472        57  DOPC      H8X            28.0544346235        4.2381350284        5.7770659122  MEMB      29              0.0000000000
      4473        57  DOPC      H8Y            26.2954086163        4.5119711829        6.2387327407  MEMB      29              0.0000000000
      4474        57  DOPC      C39            26.9909496674        2.4566187227        6.2966285073  MEMB      29              0.0000000000
      4475        57  DOPC      H9X            27.9071538362        1.8480442609        6.3110108441  MEMB      29              0.0000000000
      4476        57  DOPC      C310           25.8261180007        1.8739993716        6.0676610555  MEMB      29              0.0000000000
      4477        57  DOPC      H10X           25.7722064489        0.7989154737        5.8411922763  MEMB      29              0.0000000000
      4478        57  DOPC      C311           24.5326366286        2.6044697691        5.9083913789  MEMB      29              0.0000000000
      4479        57  DOPC      H11X           24.5118789113        3.7106670025        6.0094733050  MEMB      29              0.0000000000
      4480        57  DOPC      H11Y           23.9329690249        2.1749689621        6.7392038214  MEMB      29              0.0000000000
      4481        57  DOPC      C312           23.5977446095        2.1895042934        4.7497202636  MEMB      29              0.0000000000
      4482        57  DOPC      H12X           22.5803330268        2.4114542583        5.1369317072  MEMB      29              0.0000000000
      4483        57  DOPC      H12Y           23.5491559716        1.1182616847        4.4592042225  MEMB      29              0.0000000000
      4484        57  DOPC      C313           23.7342667482        3.1218355251        3.5111077481  MEMB      29              0.0000000000
      4485        57  DOPC      H13X           23.0312785821        2.7648721442        2.7283522769  MEMB      29              0.0000000000
      4486        57  DOPC      H13Y           23.4807067714        4.1819285674        3.7261211326  MEMB      29              0.0000000000
      4487        57  DOPC      C314           25.1216487147        2.9846811026        2.9318277213  MEMB      29              0.0000000000
      4488        57  DOPC      H14X           25.8797408377        3.4140029152        3.6212477214  MEMB      29              0.0000000000
      4489        57  DOPC      H14Y           25.3980376233        1.9242920362        2.7487829686  MEMB      29              0.0000000000
      4490        57  DOPC      C315           25.3719744040        3.6882405310        1.5688592581  MEMB      29              0.0000000000
      4491        57  DOPC      H15X           26.4534458867        3.8713276921        1.3921682661  MEMB      29              0.0000000000
      4492        57  DOPC      H15Y           24.7785788435        4.6264585600        1.5246958593  MEMB      29              0.0000000000
      4493        57  DOPC      C316           24.7999559848        2.7593231532        0.4974293110  MEMB      29              0.0000000000
      4494        57  DOPC      H16X           25.5704486221        1.9651266118        0.3978595397  MEMB      29              0.0000000000
      4495        57  DOPC      H16Y           23.8927505961        2.2558078323        0.8946351700  MEMB      29              0.0000000000
      4496        57  DOPC      C317           24.5601944372        3.4864222407       -0.7943510585  MEMB      29              0.0000000000
      4497        57  DOPC      H17X           23.5872792246        4.0228519555       -0.7937934930  MEMB      29              0.0000000000
      4498        57  DOPC      H17Y           25.3618059927        4.2495872439       -0.8908877277  MEMB      29              0.0000000000
      4499        57  DOPC      C318           24.3987156719        2.5771130279       -1.9431886768  MEMB      29              0.0000000000
      4500        57  DOPC      H18X           25.1692736087        1.7812455823       -2.0277858550  MEMB      29              0.0000000000
      4501        57  DOPC      H18Y           23.3582222087        2.1879984698       -1.9600484903  MEMB      29              0.0000000000
      4502        57  DOPC      H18Z           24.6151926761        3.1261928973       -2.8844477567  MEMB      29              0.0000000000
      4503        58  DOPC      N               6.8843874981       25.4265668982       19.8356583479  MEMB      30              0.0000000000
      4504        58  DOPC      C12             6.6738092062       26.7996075445       20.4564166848  MEMB      30              0.0000000000
      4505        58  DOPC      H12A            7.6157419078       27.3176655124       20.3525963341  MEMB      30              0.0000000000
      4506        58  DOPC      H12B            6.5508652755       26.6168482374       21.5137168697  MEMB      30              0.0000000000
      4507        58  DOPC      C13             7.9795638013       24.5861037889       20.4780405734  MEMB      30              0.0000000000
      4508        58  DOPC      H13A            8.9576467395       25.0043339301       20.2913939136  MEMB      30              0.0000000000
      4509        58  DOPC      H13B            7.8050873857       24.4122227653       21.5295745746  MEMB      30              0.0000000000
      4510        58  DOPC      H13C            7.8879803995       23.6366750985       19.9714861765  MEMB      30              0.0000000000
      4511        58  DOPC      C14             7.4785976959       25.5965331491       18.4206762125  MEMB      30              0.0000000000
      4512        58  DOPC      H14A            7.4592753117       24.6214108614       17.9568196170  MEMB      30              0.0000000000
      4513        58  DOPC      H14B            6.9590424319       26.2823621882       17.7679122900  MEMB      30              0.0000000000
      4514        58  DOPC      H14C            8.4865281078       25.9166572646       18.6397579601  MEMB      30              0.0000000000
      4515        58  DOPC      C15             5.6701297976       24.6080647303       19.6686450482  MEMB      30              0.0000000000
      4516        58  DOPC      H15A            4.9013190956       25.2728150053       19.3033544024  MEMB      30              0.0000000000
      4517        58  DOPC      H15B            5.3020982776       24.2701458469       20.6261227688  MEMB      30              0.0000000000
      4518        58  DOPC      H15C            5.7847780935       23.7658816821       19.0023242957  MEMB      30              0.0000000000
      4519        58  DOPC      C11             5.3727983368       27.5286822063       20.1105036124  MEMB      30              0.0000000000
      4520        58  DOPC      H11A            4.4370640969       27.0031294456       20.3977609136  MEMB      30              0.0000000000
      4521        58  DOPC      H11B            5.4332912072       28.5219213555       20.6046065546  MEMB      30              0.0000000000
      4522        58  DOPC      P               4.6336923998       29.0318443111       18.0333939109  MEMB      30              0.0000000000
      4523        58  DOPC      O13             5.6853372818       30.0359781049       17.8803082067  MEMB      30              0.0000000000
      4524        58  DOPC      O14             3.4995171204       29.4348857519       18.8206312818  MEMB      30              0.0000000000
      4525        58  DOPC      O12             5.2812196787       27.7457526336       18.6861096964  MEMB      30              0.0000000000
      4526        58  DOPC      O11             3.9975667360       28.6372943544       16.6096164228  MEMB      30              0.0000000000
      4527        58  DOPC      C1              3.7008203506       27.2849449948       16.2345978980  MEMB      30              0.0000000000
      4528        58  DOPC      HA              2.8387877722       27.3510781278       15.5368535073  MEMB      30              0.0000000000
      4529        58  DOPC      HB              3.3578157085       26.5620355293       17.0053577299  MEMB      30              0.0000000000
      4530        58  DOPC      C2              4.9306627320       26.5335533293       15.6424121070  MEMB      30              0.0000000000
      4531        58  DOPC      HS              5.7704313630       26.3369223022       16.3427304590  MEMB      30              0.0000000000
      4532        58  DOPC      O21             5.5853030247       27.4513092549       14.8595555870  MEMB      30              0.0000000000
      4533        58  DOPC      C21             6.9311832526       27.4542000215       14.7959603356  MEMB      30              0.0000000000
      4534        58  DOPC      O22             7.6770422689       26.6643969985       15.3043011046  MEMB      30              0.0000000000
      4535        58  DOPC      C22             7.3085805912       28.7661027662       14.1610810687  MEMB      30              0.0000000000
      4536        58  DOPC      H2R             8.4055240337       28.7114164424       13.9936135228  MEMB      30              0.0000000000
      4537        58  DOPC      H2S             7.1761264157       29.5572774973       14.9297291283  MEMB      30              0.0000000000
      4538        58  DOPC      C3              4.6693239851       25.2318409378       14.8160559672  MEMB      30              0.0000000000
      4539        58  DOPC      HX              4.1731481697       24.4987095487       15.4873598862  MEMB      30              0.0000000000
      4540        58  DOPC      HY              5.5206520870       24.5788875694       14.5275882272  MEMB      30              0.0000000000
      4541        58  DOPC      O31             3.7644683663       25.5196546057       13.7804220006  MEMB      30              0.0000000000
      4542        58  DOPC      C31             4.3848237985       25.8865614653       12.6789801238  MEMB      30              0.0000000000
      4543        58  DOPC      O32             5.5479102885       25.6692271716       12.4152225759  MEMB      30              0.0000000000
      4544        58  DOPC      C32             3.5407352543       26.6953221540       11.8848350353  MEMB      30              0.0000000000
      4545        58  DOPC      H2X             2.6703345534       27.0714177363       12.4638652163  MEMB      30              0.0000000000
      4546        58  DOPC      H2Y             4.0082167392       27.6831907430       11.6850911732  MEMB      30              0.0000000000
      4547        58  DOPC      C23             6.6925879389       28.9326076403       12.8315681584  MEMB      30              0.0000000000
      4548        58  DOPC      H3R             5.6030494651       29.0949235817       12.9760686427  MEMB      30              0.0000000000
      4549        58  DOPC      H3S             6.8884562269       28.0736652861       12.1546822207  MEMB      30              0.0000000000
      4550        58  DOPC      C24             7.2595603482       30.0981528205       11.9813256308  MEMB      30              0.0000000000
      4551        58  DOPC      H4R             8.3136391009       29.8165983698       11.7716443878  MEMB      30              0.0000000000
      4552        58  DOPC      H4S             7.2812924262       30.9998862502       12.6299590795  MEMB      30              0.0000000000
      4553        58  DOPC      C25             6.6340870048       30.4165360506       10.5999443137  MEMB      30              0.0000000000
      4554        58  DOPC      H5R             7.2523850483       31.2307011975       10.1650145958  MEMB      30              0.0000000000
      4555        58  DOPC      H5S             5.6290382977       30.8172327794       10.8522144586  MEMB      30              0.0000000000
      4556        58  DOPC      C26             6.3512641353       29.2165254637        9.6224549783  MEMB      30              0.0000000000
      4557        58  DOPC      H6R             5.6102984712       29.5978506732        8.8876885103  MEMB      30              0.0000000000
      4558        58  DOPC      H6S             5.6926217441       28.5406791293       10.2087511722  MEMB      30              0.0000000000
      4559        58  DOPC      C27             7.5845299643       28.4983239622        9.0968692405  MEMB      30              0.0000000000
      4560        58  DOPC      H7R             8.2954880390       28.1939288370        9.8944931346  MEMB      30              0.0000000000
      4561        58  DOPC      H7S             8.1511366170       29.2345772433        8.4876004040  MEMB      30              0.0000000000
      4562        58  DOPC      C28             7.1723031774       27.3916109406        8.1433930803  MEMB      30              0.0000000000
      4563        58  DOPC      H8R             7.8904382649       27.1377537503        7.3345913391  MEMB      30              0.0000000000
      4564        58  DOPC      H8S             6.1972934617       27.6645173308        7.6860103589  MEMB      30              0.0000000000
      4565        58  DOPC      C29             6.8606311233       26.1755298131        9.0437646886  MEMB      30              0.0000000000
      4566        58  DOPC      H9R             6.3769571888       26.4072336923       10.0041664833  MEMB      30              0.0000000000
      4567        58  DOPC      C210            7.1622555987       24.9141053471        8.6897056425  MEMB      30              0.0000000000
      4568        58  DOPC      H10R            7.0429035075       24.1436146827        9.4656568729  MEMB      30              0.0000000000
      4569        58  DOPC      C211            7.8454378961       24.4277686650        7.4405835329  MEMB      30              0.0000000000
      4570        58  DOPC      H11R            8.5998647584       23.6390980163        7.6483331584  MEMB      30              0.0000000000
      4571        58  DOPC      H11S            8.4061783322       25.2183340741        6.8975387804  MEMB      30              0.0000000000
      4572        58  DOPC      C212            6.8027958455       23.9203386163        6.4767118712  MEMB      30              0.0000000000
      4573        58  DOPC      H12R            6.1034149700       23.2389722779        7.0067375633  MEMB      30              0.0000000000
      4574        58  DOPC      H12S            7.2729560650       23.3836510984        5.6251036152  MEMB      30              0.0000000000
      4575        58  DOPC      C213            5.8488066368       24.9741905992        5.7083510054  MEMB      30              0.0000000000
      4576        58  DOPC      H13R            5.5481598459       25.7212436769        6.4737552370  MEMB      30              0.0000000000
      4577        58  DOPC      H13S            4.9671210122       24.4041483825        5.3450289940  MEMB      30              0.0000000000
      4578        58  DOPC      C214            6.6287800065       25.7957528409        4.6361683622  MEMB      30              0.0000000000
      4579        58  DOPC      H14R            7.3954870066       25.2449320664        4.0504401096  MEMB      30              0.0000000000
      4580        58  DOPC      H14S            7.2656340564       26.5620036753        5.1276948975  MEMB      30              0.0000000000
      4581        58  DOPC      C215            5.6732463194       26.3937091870        3.6758925298  MEMB      30              0.0000000000
      4582        58  DOPC      H15R            6.2487424147       27.2075063348        3.1851184558  MEMB      30              0.0000000000
      4583        58  DOPC      H15S            4.8630093403       26.8557620039        4.2795022275  MEMB      30              0.0000000000
      4584        58  DOPC      C216            5.1016411589       25.4543951442        2.5930599725  MEMB      30              0.0000000000
      4585        58  DOPC      H16R            4.3612360952       26.0192349717        1.9871909172  MEMB      30              0.0000000000
      4586        58  DOPC      H16S            4.5068700609       24.6279349308        3.0375052306  MEMB      30              0.0000000000
      4587        58  DOPC      C217            6.1984548210       24.9070661946        1.5859266539  MEMB      30              0.0000000000
      4588        58  DOPC      H17R            6.8887291010       24.1968064581        2.0892868844  MEMB      30              0.0000000000
      4589        58  DOPC      H17S            6.8049394415       25.7599162390        1.2129062585  MEMB      30              0.0000000000
      4590        58  DOPC      C218            5.6787894102       24.3189770170        0.2852894225  MEMB      30              0.0000000000
      4591        58  DOPC      H18R            6.3464712907       23.5608611443       -0.1770763975  MEMB      30              0.0000000000
      4592        58  DOPC      H18S            5.3644949187       25.0592358239       -0.4812331040  MEMB      30              0.0000000000
      4593        58  DOPC      H18T            4.7736032145       23.7045455516        0.4787665260  MEMB      30              0.0000000000
      4594        58  DOPC      C33             2.9944892576       25.8854885678       10.6715016681  MEMB      30              0.0000000000
      4595        58  DOPC      H3X             2.3102132910       25.1126832919       11.0824268382  MEMB      30              0.0000000000
      4596        58  DOPC      H3Y             3.7833646528       25.3707150988       10.0824310017  MEMB      30              0.0000000000
      4597        58  DOPC      C34             2.0904426044       26.7216862166        9.7460449209  MEMB      30              0.0000000000
      4598        58  DOPC      H4X             1.4570044576       27.3689019005       10.3896201302  MEMB      30              0.0000000000
      4599        58  DOPC      H4Y             1.4214234385       26.0017949901        9.2278839783  MEMB      30              0.0000000000
      4600        58  DOPC      C35             2.8134426037       27.6308312514        8.7714747791  MEMB      30              0.0000000000
      4601        58  DOPC      H5X             3.6790317051       27.1170764242        8.3012272031  MEMB      30              0.0000000000
      4602        58  DOPC      H5Y             3.2666332624       28.5538346690        9.1921927265  MEMB      30              0.0000000000
      4603        58  DOPC      C36             1.9418187329       28.1209782009        7.5568976664  MEMB      30              0.0000000000
      4604        58  DOPC      H6X             2.7132021748       28.2757022480        6.7724556638  MEMB      30              0.0000000000
      4605        58  DOPC      H6Y             1.3701442758       27.2419636684        7.1896887827  MEMB      30              0.0000000000
      4606        58  DOPC      C37             1.0574619063       29.3856556649        7.6320431122  MEMB      30              0.0000000000
      4607        58  DOPC      H7X             0.3589813875       29.2108001709        8.4781349257  MEMB      30              0.0000000000
      4608        58  DOPC      H7Y             1.5091297097       30.3419674295        7.9723150637  MEMB      30              0.0000000000
      4609        58  DOPC      C38             0.1612052272       29.6263942384        6.4298841989  MEMB      30              0.0000000000
      4610        58  DOPC      H8X            -0.5748315302       30.4315727734        6.6402623656  MEMB      30              0.0000000000
      4611        58  DOPC      H8Y            -0.4109800366       28.6763466690        6.3640462038  MEMB      30              0.0000000000
      4612        58  DOPC      C39             1.0181755979       29.7891687344        5.1719100722  MEMB      30              0.0000000000
      4613        58  DOPC      H9X             1.7157275447       30.6378254760        5.2285065580  MEMB      30              0.0000000000
      4614        58  DOPC      C310            0.7409275209       29.1341550563        3.9934383801  MEMB      30              0.0000000000
      4615        58  DOPC      H10X            1.3888468137       29.4375678482        3.1578896654  MEMB      30              0.0000000000
      4616        58  DOPC      C311           -0.4355629522       28.2390031554        3.7830559062  MEMB      30              0.0000000000
      4617        58  DOPC      H11X           -1.3571799309       28.8231694017        3.9920830607  MEMB      30              0.0000000000
      4618        58  DOPC      H11Y           -0.4708679153       27.2640086007        4.3145251805  MEMB      30              0.0000000000
      4619        58  DOPC      C312           -0.6369243026       27.9375930407        2.3259540195  MEMB      30              0.0000000000
      4620        58  DOPC      H12X           -0.5243400856       28.8658901011        1.7260294017  MEMB      30              0.0000000000
      4621        58  DOPC      H12Y           -1.6874669843       27.5932913266        2.2157831561  MEMB      30              0.0000000000
      4622        58  DOPC      C313            0.2080717065       26.8453201132        1.6770911222  MEMB      30              0.0000000000
      4623        58  DOPC      H13X            1.2449692662       27.2439794820        1.6924158888  MEMB      30              0.0000000000
      4624        58  DOPC      H13Y            0.0377015313       25.9377520773        2.2948402587  MEMB      30              0.0000000000
      4625        58  DOPC      C314           -0.1407292325       26.3069393971        0.2733461616  MEMB      30              0.0000000000
      4626        58  DOPC      H14X           -1.1841151865       25.9276784751        0.3160996386  MEMB      30              0.0000000000
      4627        58  DOPC      H14Y           -0.2250441875       27.1557275466       -0.4385315751  MEMB      30              0.0000000000
      4628        58  DOPC      C315            0.8082003955       25.3190051337       -0.4154135099  MEMB      30              0.0000000000
      4629        58  DOPC      H15X            0.2820232269       25.1171836049       -1.3728739016  MEMB      30              0.0000000000
      4630        58  DOPC      H15Y            0.8788475863       24.4336991088        0.2520910338  MEMB      30              0.0000000000
      4631        58  DOPC      C316            2.2783524260       25.7667720572       -0.5953231965  MEMB      30              0.0000000000
      4632        58  DOPC      H16X            2.6194018777       26.0399833403        0.4261276654  MEMB      30              0.0000000000
      4633        58  DOPC      H16Y            2.9540517647       24.9862602539       -1.0058748750  MEMB      30              0.0000000000
      4634        58  DOPC      C317            2.3828498712       27.1861505550       -1.3839888291  MEMB      30              0.0000000000
      4635        58  DOPC      H17X            1.9737798185       28.0014372271       -0.7497261260  MEMB      30              0.0000000000
      4636        58  DOPC      H17Y            3.4636046651       27.4120027429       -1.5076042473  MEMB      30              0.0000000000
      4637        58  DOPC      C318            1.6653867846       27.2619146685       -2.7491501501  MEMB      30              0.0000000000
      4638        58  DOPC      H18X            0.5584499451       27.3391715391       -2.6939841011  MEMB      30              0.0000000000
      4639        58  DOPC      H18Y            1.9987439843       28.1921990348       -3.2568553355  MEMB      30              0.0000000000
      4640        58  DOPC      H18Z            2.0168328963       26.3601118447       -3.2946388226  MEMB      30              0.0000000000
      4641        59  DOPC      N               1.7526268744      -27.4594649774       20.7259879520  MEMB      31              0.0000000000
      4642        59  DOPC      C12             0.3735980370      -28.1514976584       20.5220739216  MEMB      31              0.0000000000
      4643        59  DOPC      H12A           -0.1161637793      -28.1750139135       21.4843525823  MEMB      31              0.0000000000
      4644        59  DOPC      H12B            0.5413290306      -29.2166881541       20.4617797784  MEMB      31              0.0000000000
      4645        59  DOPC      C13             1.5377098663      -26.1159661347       21.2472439164  MEMB      31              0.0000000000
      4646        59  DOPC      H13A            2.4146226829      -25.5820450606       21.5824336471  MEMB      31              0.0000000000
      4647        59  DOPC      H13B            1.0204923307      -25.4514940513       20.5709578845  MEMB      31              0.0000000000
      4648        59  DOPC      H13C            0.8579951316      -26.2926133543       22.0677217216  MEMB      31              0.0000000000
      4649        59  DOPC      C14             2.5246761855      -27.4347735481       19.4578974223  MEMB      31              0.0000000000
      4650        59  DOPC      H14A            2.7593803552      -28.3789521986       18.9890257293  MEMB      31              0.0000000000
      4651        59  DOPC      H14B            1.9015950027      -27.0494577442       18.6643600129  MEMB      31              0.0000000000
      4652        59  DOPC      H14C            3.3393496028      -26.7314597481       19.5476582859  MEMB      31              0.0000000000
      4653        59  DOPC      C15             2.5299077616      -28.3947010400       21.6334072239  MEMB      31              0.0000000000
      4654        59  DOPC      H15A            2.1793424837      -28.3446371368       22.6537002495  MEMB      31              0.0000000000
      4655        59  DOPC      H15B            3.5629081764      -28.0835711506       21.6834876918  MEMB      31              0.0000000000
      4656        59  DOPC      H15C            2.5477494092      -29.4088575711       21.2625055688  MEMB      31              0.0000000000
      4657        59  DOPC      C11            -0.6797527238      -27.6802425045       19.4817989795  MEMB      31              0.0000000000
      4658        59  DOPC      H11A           -1.4802920081      -28.4119372957       19.7227978874  MEMB      31              0.0000000000
      4659        59  DOPC      H11B           -1.0331449010      -26.6422948256       19.6609625822  MEMB      31              0.0000000000
      4660        59  DOPC      P              -0.3500367076      -26.7911628039       17.1185769618  MEMB      31              0.0000000000
      4661        59  DOPC      O13             0.0909508308      -27.2796737204       15.7682862632  MEMB      31              0.0000000000
      4662        59  DOPC      O14             0.3540860629      -25.6889938539       17.7612582311  MEMB      31              0.0000000000
      4663        59  DOPC      O12            -0.3176735575      -27.9990735473       18.1064591409  MEMB      31              0.0000000000
      4664        59  DOPC      O11            -1.9189477771      -26.4677593784       17.1770099575  MEMB      31              0.0000000000
      4665        59  DOPC      C1             -2.3655342558      -25.4394957083       16.2827636461  MEMB      31              0.0000000000
      4666        59  DOPC      HA             -1.6177848138      -24.7080642085       15.9083308677  MEMB      31              0.0000000000
      4667        59  DOPC      HB             -3.1772975334      -24.9158252369       16.8315173159  MEMB      31              0.0000000000
      4668        59  DOPC      C2             -3.0618847739      -26.0899125040       14.9937550708  MEMB      31              0.0000000000
      4669        59  DOPC      HS             -3.9207562358      -26.6825373854       15.3751425413  MEMB      31              0.0000000000
      4670        59  DOPC      O21            -2.1177739861      -26.8391219934       14.2511440180  MEMB      31              0.0000000000
      4671        59  DOPC      C21            -2.7634338359      -27.7653556823       13.5715718896  MEMB      31              0.0000000000
      4672        59  DOPC      O22            -3.9707238346      -28.0179341302       13.7042505413  MEMB      31              0.0000000000
      4673        59  DOPC      C22            -1.7383916614      -28.5905429046       12.6977912151  MEMB      31              0.0000000000
      4674        59  DOPC      H2R            -0.9940404212      -29.1708384204       13.2838964944  MEMB      31              0.0000000000
      4675        59  DOPC      H2S            -1.2041472060      -27.9364151383       11.9759735453  MEMB      31              0.0000000000
      4676        59  DOPC      C3             -3.5906454192      -25.0028329379       14.1085342781  MEMB      31              0.0000000000
      4677        59  DOPC      HX             -4.1191253613      -24.2935442045       14.7807986245  MEMB      31              0.0000000000
      4678        59  DOPC      HY             -4.4589830052      -25.3428161998       13.5046117388  MEMB      31              0.0000000000
      4679        59  DOPC      O31            -2.5769574563      -24.1757892722       13.5026409868  MEMB      31              0.0000000000
      4680        59  DOPC      C31            -2.3369103138      -24.4352750695       12.2350147571  MEMB      31              0.0000000000
      4681        59  DOPC      O32            -3.0072203100      -25.1831594340       11.5420086313  MEMB      31              0.0000000000
      4682        59  DOPC      C32            -1.2503612163      -23.4826640747       11.7670761189  MEMB      31              0.0000000000
      4683        59  DOPC      H2X            -1.4498836611      -22.3953936076       11.8782297139  MEMB      31              0.0000000000
      4684        59  DOPC      H2Y            -0.4062230081      -23.7423152836       12.4411181491  MEMB      31              0.0000000000
      4685        59  DOPC      C23            -2.4842071628      -29.6630287523       11.8659127349  MEMB      31              0.0000000000
      4686        59  DOPC      H3R            -3.2956490369      -30.0552134832       12.5155852478  MEMB      31              0.0000000000
      4687        59  DOPC      H3S            -1.8315694780      -30.5225555698       11.6020968014  MEMB      31              0.0000000000
      4688        59  DOPC      C24            -3.0498533356      -29.1073508886       10.5083757425  MEMB      31              0.0000000000
      4689        59  DOPC      H4R            -3.1785690886      -28.0201967089       10.6977152816  MEMB      31              0.0000000000
      4690        59  DOPC      H4S            -4.0596921453      -29.5286656106       10.3159171058  MEMB      31              0.0000000000
      4691        59  DOPC      C25            -1.9633789146      -29.2053328458        9.4804800441  MEMB      31              0.0000000000
      4692        59  DOPC      H5R            -1.8464543626      -30.2191316464        9.0413200351  MEMB      31              0.0000000000
      4693        59  DOPC      H5S            -1.1064871318      -28.8217532142       10.0745536830  MEMB      31              0.0000000000
      4694        59  DOPC      C26            -2.0016047982      -28.1314766468        8.3406691212  MEMB      31              0.0000000000
      4695        59  DOPC      H6R            -0.9669820890      -28.0960801744        7.9374029295  MEMB      31              0.0000000000
      4696        59  DOPC      H6S            -2.3201155358      -27.0957672228        8.5859814070  MEMB      31              0.0000000000
      4697        59  DOPC      C27            -2.8682232622      -28.6135840318        7.1285532488  MEMB      31              0.0000000000
      4698        59  DOPC      H7R            -2.6710908252      -29.6953857010        6.9699191376  MEMB      31              0.0000000000
      4699        59  DOPC      H7S            -2.4957596441      -28.0756429223        6.2306603550  MEMB      31              0.0000000000
      4700        59  DOPC      C28            -4.4054982854      -28.4624290518        7.1598964675  MEMB      31              0.0000000000
      4701        59  DOPC      H8R            -4.8056164253      -29.0228075445        8.0317921198  MEMB      31              0.0000000000
      4702        59  DOPC      H8S            -4.8432920286      -29.1095041205        6.3699909700  MEMB      31              0.0000000000
      4703        59  DOPC      C29            -4.9209964578      -27.0560582352        7.1584653493  MEMB      31              0.0000000000
      4704        59  DOPC      H9R            -5.4138665761      -26.6461286543        8.0523535306  MEMB      31              0.0000000000
      4705        59  DOPC      C210           -4.8162916205      -26.3062522016        5.9990140104  MEMB      31              0.0000000000
      4706        59  DOPC      H10R           -5.0304600516      -25.2273334459        6.0071509151  MEMB      31              0.0000000000
      4707        59  DOPC      C211           -4.2565419577      -26.5668739747        4.6116571852  MEMB      31              0.0000000000
      4708        59  DOPC      H11R           -4.0302783485      -27.6468251324        4.4819211920  MEMB      31              0.0000000000
      4709        59  DOPC      H11S           -3.3078148410      -26.0230053238        4.4155843463  MEMB      31              0.0000000000
      4710        59  DOPC      C212           -5.3395930813      -26.0621407258        3.5468623831  MEMB      31              0.0000000000
      4711        59  DOPC      H12R           -6.0622138303      -25.3653975608        4.0229815265  MEMB      31              0.0000000000
      4712        59  DOPC      H12S           -5.9008174567      -26.9408473087        3.1631658716  MEMB      31              0.0000000000
      4713        59  DOPC      C213           -4.6329118714      -25.2957592756        2.3758214227  MEMB      31              0.0000000000
      4714        59  DOPC      H13R           -4.2444666446      -24.3100976044        2.7103394063  MEMB      31              0.0000000000
      4715        59  DOPC      H13S           -5.3953704970      -25.1736255370        1.5770329197  MEMB      31              0.0000000000
      4716        59  DOPC      C214           -3.5018976917      -26.1859072364        1.6394294814  MEMB      31              0.0000000000
      4717        59  DOPC      H14R           -4.0639460616      -27.0432053727        1.2111034931  MEMB      31              0.0000000000
      4718        59  DOPC      H14S           -2.8258351282      -26.5737820167        2.4311451958  MEMB      31              0.0000000000
      4719        59  DOPC      C215           -2.6854532115      -25.5587167896        0.5628267062  MEMB      31              0.0000000000
      4720        59  DOPC      H15R           -1.9366830303      -26.2467065407        0.1152391902  MEMB      31              0.0000000000
      4721        59  DOPC      H15S           -2.1411261498      -24.7437209503        1.0860947085  MEMB      31              0.0000000000
      4722        59  DOPC      C216           -3.4882333735      -24.9845271466       -0.6006662833  MEMB      31              0.0000000000
      4723        59  DOPC      H16R           -4.1586511464      -24.2198644101       -0.1532830844  MEMB      31              0.0000000000
      4724        59  DOPC      H16S           -4.1410586164      -25.7470957652       -1.0767217540  MEMB      31              0.0000000000
      4725        59  DOPC      C217           -2.6876330356      -24.4399988892       -1.7676265439  MEMB      31              0.0000000000
      4726        59  DOPC      H17R           -3.5092263536      -24.2814055647       -2.4984844490  MEMB      31              0.0000000000
      4727        59  DOPC      H17S           -2.0260818415      -25.3136884910       -1.9502122153  MEMB      31              0.0000000000
      4728        59  DOPC      C218           -1.8358642955      -23.2246402809       -1.6993217783  MEMB      31              0.0000000000
      4729        59  DOPC      H18R           -1.2615454788      -22.9965015677       -2.6225941064  MEMB      31              0.0000000000
      4730        59  DOPC      H18S           -1.1071457560      -23.2735419996       -0.8621239513  MEMB      31              0.0000000000
      4731        59  DOPC      H18T           -2.4898596900      -22.3560701339       -1.4708551239  MEMB      31              0.0000000000
      4732        59  DOPC      C33            -1.0563135741      -23.8761036235       10.2923865989  MEMB      31              0.0000000000
      4733        59  DOPC      H3X            -1.9764044101      -23.8648011971        9.6697910154  MEMB      31              0.0000000000
      4734        59  DOPC      H3Y            -0.5232269932      -24.8397484954       10.1456609199  MEMB      31              0.0000000000
      4735        59  DOPC      C34            -0.0676864908      -22.8778185426        9.6686277579  MEMB      31              0.0000000000
      4736        59  DOPC      H4X             0.3680808752      -23.3635711821        8.7694773465  MEMB      31              0.0000000000
      4737        59  DOPC      H4Y             0.7029567754      -22.5201672138       10.3845302005  MEMB      31              0.0000000000
      4738        59  DOPC      C35            -0.8463573143      -21.6289899480        9.1961248656  MEMB      31              0.0000000000
      4739        59  DOPC      H5X            -0.8672905909      -20.7897252100        9.9238051349  MEMB      31              0.0000000000
      4740        59  DOPC      H5Y            -1.9131182691      -21.8183306248        8.9501731290  MEMB      31              0.0000000000
      4741        59  DOPC      C36            -0.4124708688      -21.0745497616        7.7763434773  MEMB      31              0.0000000000
      4742        59  DOPC      H6X            -0.9907953288      -20.1622837430        7.5162806775  MEMB      31              0.0000000000
      4743        59  DOPC      H6Y             0.6480426911      -20.7547529141        7.8621433697  MEMB      31              0.0000000000
      4744        59  DOPC      C37            -0.5079850596      -22.0031028536        6.5311547848  MEMB      31              0.0000000000
      4745        59  DOPC      H7X             0.2361591633      -21.8073338907        5.7297525170  MEMB      31              0.0000000000
      4746        59  DOPC      H7Y            -0.2255853532      -23.0101961870        6.9057664955  MEMB      31              0.0000000000
      4747        59  DOPC      C38            -1.8894597661      -22.1564218973        5.8339897215  MEMB      31              0.0000000000
      4748        59  DOPC      H8X            -2.7045520797      -22.0705643428        6.5840387211  MEMB      31              0.0000000000
      4749        59  DOPC      H8Y            -1.8754713478      -23.1900098972        5.4267783352  MEMB      31              0.0000000000
      4750        59  DOPC      C39            -2.0816744749      -21.0094097046        4.8947631528  MEMB      31              0.0000000000
      4751        59  DOPC      H9X            -2.6212720540      -20.1776341091        5.3711915251  MEMB      31              0.0000000000
      4752        59  DOPC      C310           -1.6920959167      -20.8070975854        3.6932866538  MEMB      31              0.0000000000
      4753        59  DOPC      H10X           -1.8605233315      -19.9158238556        3.0709814966  MEMB      31              0.0000000000
      4754        59  DOPC      C311           -0.8794139919      -21.9124346383        2.9026206628  MEMB      31              0.0000000000
      4755        59  DOPC      H11X           -1.2933355699      -21.9062314153        1.8716255717  MEMB      31              0.0000000000
      4756        59  DOPC      H11Y           -0.9960101729      -22.9188675239        3.3584925097  MEMB      31              0.0000000000
      4757        59  DOPC      C312            0.6048737617      -21.5141037393        2.6862504676  MEMB      31              0.0000000000
      4758        59  DOPC      H12X            1.1596645359      -21.6218381087        3.6427658634  MEMB      31              0.0000000000
      4759        59  DOPC      H12Y            0.5360418857      -20.4442061900        2.3948710486  MEMB      31              0.0000000000
      4760        59  DOPC      C313            1.3537186866      -22.3395518477        1.6165395304  MEMB      31              0.0000000000
      4761        59  DOPC      H13X            1.1645852024      -22.0601996397        0.5579979261  MEMB      31              0.0000000000
      4762        59  DOPC      H13Y            2.4580195497      -22.2820158103        1.7239214645  MEMB      31              0.0000000000
      4763        59  DOPC      C314            1.2106297939      -23.8544121977        1.8482830297  MEMB      31              0.0000000000
      4764        59  DOPC      H14X            1.5541770268      -24.0899762180        2.8782381039  MEMB      31              0.0000000000
      4765        59  DOPC      H14Y            0.1446828010      -24.1190821284        1.6808677760  MEMB      31              0.0000000000
      4766        59  DOPC      C315            2.1201904548      -24.6365815810        0.9204720684  MEMB      31              0.0000000000
      4767        59  DOPC      H15X            3.1906522980      -24.5271955954        1.1969995183  MEMB      31              0.0000000000
      4768        59  DOPC      H15Y            2.0288714792      -24.2918091979       -0.1317215417  MEMB      31              0.0000000000
      4769        59  DOPC      C316            1.9184686499      -26.2088180587        0.8212151157  MEMB      31              0.0000000000
      4770        59  DOPC      H16X            2.2096390971      -26.6745011968        1.7869697168  MEMB      31              0.0000000000
      4771        59  DOPC      H16Y            0.8362717952      -26.3479097631        0.6118733078  MEMB      31              0.0000000000
      4772        59  DOPC      C317            2.7571479865      -26.8523444544       -0.2766778369  MEMB      31              0.0000000000
      4773        59  DOPC      H17X            2.3573100742      -27.8886141575       -0.3010851266  MEMB      31              0.0000000000
      4774        59  DOPC      H17Y            2.4119206730      -26.4319034873       -1.2453720977  MEMB      31              0.0000000000
      4775        59  DOPC      C318            4.2997484856      -26.8230769843       -0.2654611549  MEMB      31              0.0000000000
      4776        59  DOPC      H18X            4.6365099502      -25.7651292112       -0.2247277621  MEMB      31              0.0000000000
      4777        59  DOPC      H18Y            4.5209552482      -27.4092493665        0.6520300681  MEMB      31              0.0000000000
      4778        59  DOPC      H18Z            4.7677336451      -27.3709602103       -1.1111179597  MEMB      31              0.0000000000
      4779        60  DOPC      N             -25.4473112080       16.1828747931       20.9483887653  MEMB      32              0.0000000000
      4780        60  DOPC      C12           -26.2504748205       15.0306041526       20.7084293217  MEMB      32              0.0000000000
      4781        60  DOPC      H12A          -26.7511388412       14.7334709523       21.6180707595  MEMB      32              0.0000000000
      4782        60  DOPC      H12B          -25.4946636942       14.2660300405       20.6055896714  MEMB      32              0.0000000000
      4783        60  DOPC      C13           -24.3371976124       16.5508563613       19.9379536446  MEMB      32              0.0000000000
      4784        60  DOPC      H13A          -23.8897871580       15.6422933719       19.5628043551  MEMB      32              0.0000000000
      4785        60  DOPC      H13B          -24.7979253724       17.1123012132       19.1386354189  MEMB      32              0.0000000000
      4786        60  DOPC      H13C          -23.5868636464       17.1976624405       20.3681175655  MEMB      32              0.0000000000
      4787        60  DOPC      C14           -24.7035813908       16.0188681819       22.2205092578  MEMB      32              0.0000000000
      4788        60  DOPC      H14A          -24.3262195911       16.9947225325       22.4882896886  MEMB      32              0.0000000000
      4789        60  DOPC      H14B          -25.3332346316       15.6883020476       23.0333210327  MEMB      32              0.0000000000
      4790        60  DOPC      H14C          -23.8906726377       15.3263287795       22.0593620747  MEMB      32              0.0000000000
      4791        60  DOPC      C15           -26.2538627447       17.4409650954       21.2702406470  MEMB      32              0.0000000000
      4792        60  DOPC      H15A          -26.8720246822       17.2321262988       22.1308579758  MEMB      32              0.0000000000
      4793        60  DOPC      H15B          -26.9713854193       17.6867453502       20.5013757816  MEMB      32              0.0000000000
      4794        60  DOPC      H15C          -25.5297559734       18.2191927399       21.4611106135  MEMB      32              0.0000000000
      4795        60  DOPC      C11           -27.1852088411       15.2063233624       19.4605009043  MEMB      32              0.0000000000
      4796        60  DOPC      H11A          -27.7178317281       14.2546950726       19.2482805405  MEMB      32              0.0000000000
      4797        60  DOPC      H11B          -27.9672355438       15.9135076625       19.8107088334  MEMB      32              0.0000000000
      4798        60  DOPC      P             -26.5038462521       14.9130651140       16.8915639112  MEMB      32              0.0000000000
      4799        60  DOPC      O13           -27.9104309284       14.6558442359       16.3128971876  MEMB      32              0.0000000000
      4800        60  DOPC      O14           -25.6293081809       13.7647054676       17.1074754847  MEMB      32              0.0000000000
      4801        60  DOPC      O12           -26.5757694610       15.7133453079       18.2434613782  MEMB      32              0.0000000000
      4802        60  DOPC      O11           -25.9151485678       15.9906040050       15.8985794971  MEMB      32              0.0000000000
      4803        60  DOPC      C1            -24.6957073966       16.7384145929       16.1228326386  MEMB      32              0.0000000000
      4804        60  DOPC      HA            -24.0985099010       16.4165054984       15.2430309648  MEMB      32              0.0000000000
      4805        60  DOPC      HB            -24.1066336276       16.5322709388       17.0419724049  MEMB      32              0.0000000000
      4806        60  DOPC      C2            -25.0408602887       18.2756891204       16.0640429549  MEMB      32              0.0000000000
      4807        60  DOPC      HS            -25.3720390649       18.5804105547       17.0798118711  MEMB      32              0.0000000000
      4808        60  DOPC      O21           -26.0811226671       18.6393144856       15.1832853291  MEMB      32              0.0000000000
      4809        60  DOPC      C21           -27.3460153576       18.8600426734       15.5416545360  MEMB      32              0.0000000000
      4810        60  DOPC      O22           -27.7424739179       18.8472319673       16.6687899494  MEMB      32              0.0000000000
      4811        60  DOPC      C22           -28.3898769129       19.1433144285       14.3836434263  MEMB      32              0.0000000000
      4812        60  DOPC      H2R           -29.2509621839       19.8135605712       14.5925054995  MEMB      32              0.0000000000
      4813        60  DOPC      H2S           -28.8271982228       18.2046931027       13.9810752208  MEMB      32              0.0000000000
      4814        60  DOPC      C3            -23.8260058938       19.1120548791       15.6401123903  MEMB      32              0.0000000000
      4815        60  DOPC      HX            -23.0188302632       18.7846058432       16.3297249702  MEMB      32              0.0000000000
      4816        60  DOPC      HY            -23.9964711309       20.1968900757       15.8086207124  MEMB      32              0.0000000000
      4817        60  DOPC      O31           -23.3044103677       18.6552365327       14.3450204902  MEMB      32              0.0000000000
      4818        60  DOPC      C31           -23.3694945521       19.5727835306       13.2381490219  MEMB      32              0.0000000000
      4819        60  DOPC      O32           -23.5209997127       20.7209998771       13.4348402066  MEMB      32              0.0000000000
      4820        60  DOPC      C32           -22.9663709162       18.9540811910       11.9336206481  MEMB      32              0.0000000000
      4821        60  DOPC      H2X           -21.9125505858       19.2234511801       11.7072950947  MEMB      32              0.0000000000
      4822        60  DOPC      H2Y           -23.1679168227       17.8636271743       12.0015169034  MEMB      32              0.0000000000
      4823        60  DOPC      C23           -27.6824927399       19.8625175705       13.2003434578  MEMB      32              0.0000000000
      4824        60  DOPC      H3R           -26.7741551314       19.2339286893       13.0815162074  MEMB      32              0.0000000000
      4825        60  DOPC      H3S           -27.1872945924       20.7809608991       13.5818687548  MEMB      32              0.0000000000
      4826        60  DOPC      C24           -28.5193634332       20.2293068711       12.0041135189  MEMB      32              0.0000000000
      4827        60  DOPC      H4R           -27.8616520525       20.7806113040       11.2985640600  MEMB      32              0.0000000000
      4828        60  DOPC      H4S           -29.2651661377       20.9547620468       12.3937467296  MEMB      32              0.0000000000
      4829        60  DOPC      C25           -29.2826475835       19.1510945649       11.2971297356  MEMB      32              0.0000000000
      4830        60  DOPC      H5R           -30.0560839255       19.6803223579       10.7004429484  MEMB      32              0.0000000000
      4831        60  DOPC      H5S           -29.8295983441       18.4285382778       11.9398413067  MEMB      32              0.0000000000
      4832        60  DOPC      C26           -28.5111511144       18.2854094295       10.3616032745  MEMB      32              0.0000000000
      4833        60  DOPC      H6R           -27.4881668254       18.1149809690       10.7600729937  MEMB      32              0.0000000000
      4834        60  DOPC      H6S           -28.3409303550       19.0523027696        9.5759691776  MEMB      32              0.0000000000
      4835        60  DOPC      C27           -29.1564398075       16.9928860246        9.9063981390  MEMB      32              0.0000000000
      4836        60  DOPC      H7R           -30.0616937025       17.2729334512        9.3263894059  MEMB      32              0.0000000000
      4837        60  DOPC      H7S           -29.4043683817       16.4256426937       10.8289415497  MEMB      32              0.0000000000
      4838        60  DOPC      C28           -28.3749178722       15.9665601348        9.0410729650  MEMB      32              0.0000000000
      4839        60  DOPC      H8R           -27.7172786484       16.5621527835        8.3724158030  MEMB      32              0.0000000000
      4840        60  DOPC      H8S           -29.1083976953       15.4178988650        8.4123442265  MEMB      32              0.0000000000
      4841        60  DOPC      C29           -27.5079031715       14.8874099546        9.6667279234  MEMB      32              0.0000000000
      4842        60  DOPC      H9R           -28.1520886185       14.1778652568       10.2067014496  MEMB      32              0.0000000000
      4843        60  DOPC      C210          -26.1902655410       14.7445993343        9.6620112551  MEMB      32              0.0000000000
      4844        60  DOPC      H10R          -25.6372671366       14.0375323370       10.2978165746  MEMB      32              0.0000000000
      4845        60  DOPC      C211          -25.1913705253       15.6045014919        8.9606564034  MEMB      32              0.0000000000
      4846        60  DOPC      H11R          -24.4963136101       15.9478298192        9.7564851141  MEMB      32              0.0000000000
      4847        60  DOPC      H11S          -25.6021139222       16.6301741020        8.8440093718  MEMB      32              0.0000000000
      4848        60  DOPC      C212          -24.3757882502       15.1400778668        7.6742552510  MEMB      32              0.0000000000
      4849        60  DOPC      H12R          -24.1172303433       14.0596078447        7.6815349261  MEMB      32              0.0000000000
      4850        60  DOPC      H12S          -23.4011702881       15.6727993152        7.6997324443  MEMB      32              0.0000000000
      4851        60  DOPC      C213          -25.1783197010       15.4851444349        6.4376452823  MEMB      32              0.0000000000
      4852        60  DOPC      H13R          -26.2572753908       15.3509738028        6.6660616388  MEMB      32              0.0000000000
      4853        60  DOPC      H13S          -25.0186912677       14.7482212514        5.6216898127  MEMB      32              0.0000000000
      4854        60  DOPC      C214          -24.9791850927       16.8930334854        5.8925664318  MEMB      32              0.0000000000
      4855        60  DOPC      H14R          -23.8857734434       17.0163818541        5.7390829913  MEMB      32              0.0000000000
      4856        60  DOPC      H14S          -25.2145179456       17.6345529867        6.6857174496  MEMB      32              0.0000000000
      4857        60  DOPC      C215          -25.6645289328       17.1877163964        4.5203360959  MEMB      32              0.0000000000
      4858        60  DOPC      H15R          -25.4920844271       18.2735139139        4.3602486942  MEMB      32              0.0000000000
      4859        60  DOPC      H15S          -26.7269529994       16.9184413710        4.7021784526  MEMB      32              0.0000000000
      4860        60  DOPC      C216          -25.2243331938       16.4474010158        3.2552686446  MEMB      32              0.0000000000
      4861        60  DOPC      H16R          -26.0597850513       16.4447403654        2.5229197613  MEMB      32              0.0000000000
      4862        60  DOPC      H16S          -25.0217845000       15.3727382687        3.4512135567  MEMB      32              0.0000000000
      4863        60  DOPC      C217          -23.9730069507       17.0712849486        2.5523133216  MEMB      32              0.0000000000
      4864        60  DOPC      H17R          -23.0932053494       17.1769550136        3.2224659548  MEMB      32              0.0000000000
      4865        60  DOPC      H17S          -24.1863983147       18.1535842569        2.4203543972  MEMB      32              0.0000000000
      4866        60  DOPC      C218          -23.7700200054       16.3799830794        1.2458134757  MEMB      32              0.0000000000
      4867        60  DOPC      H18R          -22.8144521729       16.6475316418        0.7461849547  MEMB      32              0.0000000000
      4868        60  DOPC      H18S          -24.6127025817       16.6674781096        0.5813183856  MEMB      32              0.0000000000
      4869        60  DOPC      H18T          -23.7820392601       15.2876243064        1.4481226536  MEMB      32              0.0000000000
      4870        60  DOPC      C33           -23.8571529463       19.6462449312       10.9511107675  MEMB      32              0.0000000000
      4871        60  DOPC      H3X           -24.3940200545       20.5912008553       11.1816605905  MEMB      32              0.0000000000
      4872        60  DOPC      H3Y           -24.7262330808       18.9969268890       10.7115139156  MEMB      32              0.0000000000
      4873        60  DOPC      C34           -23.0553794112       19.9875734469        9.6816069049  MEMB      32              0.0000000000
      4874        60  DOPC      H4X           -22.2924645252       19.1828233847        9.6133452528  MEMB      32              0.0000000000
      4875        60  DOPC      H4Y           -22.5263172365       20.9597205339        9.7782725963  MEMB      32              0.0000000000
      4876        60  DOPC      C35           -23.8424653650       19.7638996211        8.3961895446  MEMB      32              0.0000000000
      4877        60  DOPC      H5X           -24.7029368339       20.4662982672        8.3728231592  MEMB      32              0.0000000000
      4878        60  DOPC      H5Y           -24.2159331740       18.7175635766        8.3913687539  MEMB      32              0.0000000000
      4879        60  DOPC      C36           -22.9230369498       20.1459392639        7.2584849399  MEMB      32              0.0000000000
      4880        60  DOPC      H6X           -22.5828514958       21.1743973068        7.5052011616  MEMB      32              0.0000000000
      4881        60  DOPC      H6Y           -22.0394043614       19.4771435243        7.3373966905  MEMB      32              0.0000000000
      4882        60  DOPC      C37           -23.5205098588       20.1393706168        5.7942866609  MEMB      32              0.0000000000
      4883        60  DOPC      H7X           -22.7289410990       20.1773906358        5.0156382603  MEMB      32              0.0000000000
      4884        60  DOPC      H7Y           -24.0518797287       19.1683130656        5.6993411937  MEMB      32              0.0000000000
      4885        60  DOPC      C38           -24.6499361700       21.0798006362        5.6253170190  MEMB      32              0.0000000000
      4886        60  DOPC      H8X           -25.4082331099       20.8438920097        6.4022682569  MEMB      32              0.0000000000
      4887        60  DOPC      H8Y           -25.2866097480       21.0176456254        4.7169642855  MEMB      32              0.0000000000
      4888        60  DOPC      C39           -24.1904121392       22.5079193876        5.6834225258  MEMB      32              0.0000000000
      4889        60  DOPC      H9X           -23.4391755661       22.6632376962        6.4717882141  MEMB      32              0.0000000000
      4890        60  DOPC      C310          -24.6667726126       23.5919289690        4.9722232840  MEMB      32              0.0000000000
      4891        60  DOPC      H10X          -24.1200449994       24.5454558625        5.0155280505  MEMB      32              0.0000000000
      4892        60  DOPC      C311          -25.7641929296       23.6266749309        3.9334185820  MEMB      32              0.0000000000
      4893        60  DOPC      H11X          -26.3413485929       24.5759937756        3.9358352687  MEMB      32              0.0000000000
      4894        60  DOPC      H11Y          -26.4251132167       22.7336571643        3.9284694141  MEMB      32              0.0000000000
      4895        60  DOPC      C312          -25.0462535492       23.5697547595        2.5244498565  MEMB      32              0.0000000000
      4896        60  DOPC      H12X          -24.2800191739       24.3737798174        2.4970698054  MEMB      32              0.0000000000
      4897        60  DOPC      H12Y          -25.8455478726       23.8988965943        1.8265132562  MEMB      32              0.0000000000
      4898        60  DOPC      C313          -24.6357432112       22.1593051579        2.0818807720  MEMB      32              0.0000000000
      4899        60  DOPC      H13X          -23.7093763089       21.9123520154        2.6432895288  MEMB      32              0.0000000000
      4900        60  DOPC      H13Y          -25.4475412982       21.4421724778        2.3289143939  MEMB      32              0.0000000000
      4901        60  DOPC      C314          -24.1950996028       22.1192516071        0.5999085043  MEMB      32              0.0000000000
      4902        60  DOPC      H14X          -24.9052766948       22.7391647674        0.0119656375  MEMB      32              0.0000000000
      4903        60  DOPC      H14Y          -23.2206200789       22.6498021588        0.5431035203  MEMB      32              0.0000000000
      4904        60  DOPC      C315          -23.9762495508       20.7784296277       -0.0686548275  MEMB      32              0.0000000000
      4905        60  DOPC      H15X          -24.9631443965       20.2793079010       -0.1746591139  MEMB      32              0.0000000000
      4906        60  DOPC      H15Y          -23.4403130103       20.1910014739        0.7072444995  MEMB      32              0.0000000000
      4907        60  DOPC      C316          -23.1500275947       20.8993456437       -1.3698530106  MEMB      32              0.0000000000
      4908        60  DOPC      H16X          -23.6936339246       21.4349627627       -2.1772733010  MEMB      32              0.0000000000
      4909        60  DOPC      H16Y          -22.2623672434       21.5524815453       -1.2291624836  MEMB      32              0.0000000000
      4910        60  DOPC      C317          -22.5561653126       19.5718750673       -1.8804919039  MEMB      32              0.0000000000
      4911        60  DOPC      H17X          -21.9392668472       19.7049836227       -2.7948441111  MEMB      32              0.0000000000
      4912        60  DOPC      H17Y          -21.8928253699       19.0978924269       -1.1257456610  MEMB      32              0.0000000000
      4913        60  DOPC      C318          -23.8225554890       18.6486248507       -2.2029895993  MEMB      32              0.0000000000
      4914        60  DOPC      H18X          -24.5444557394       18.6718988535       -1.3588097113  MEMB      32              0.0000000000
      4915        60  DOPC      H18Y          -24.2227918327       19.0722638129       -3.1488551496  MEMB      32              0.0000000000
      4916        60  DOPC      H18Z          -23.5026419886       17.6172928764       -2.4643913049  MEMB      32              0.0000000000
      4917        61  DOPC      N             -13.4827388693      -23.2056856357       20.8032047606  MEMB      33              0.0000000000
      4918        61  DOPC      C12           -13.9353506778      -24.5664182636       20.4047467475  MEMB      33              0.0000000000
      4919        61  DOPC      H12A          -14.0618709210      -25.1105704335       21.3290254946  MEMB      33              0.0000000000
      4920        61  DOPC      H12B          -13.1506249296      -25.0949732329       19.8839445320  MEMB      33              0.0000000000
      4921        61  DOPC      C13           -14.6724852376      -22.4137208595       21.2336491359  MEMB      33              0.0000000000
      4922        61  DOPC      H13A          -15.3430487196      -22.0983104019       20.4479895907  MEMB      33              0.0000000000
      4923        61  DOPC      H13B          -15.2899013969      -22.8729734486       21.9914646001  MEMB      33              0.0000000000
      4924        61  DOPC      H13C          -14.2856433053      -21.4517128058       21.5357975368  MEMB      33              0.0000000000
      4925        61  DOPC      C14           -12.9298795505      -22.4258728293       19.5301005426  MEMB      33              0.0000000000
      4926        61  DOPC      H14A          -13.7679750575      -22.1197362372       18.9215974200  MEMB      33              0.0000000000
      4927        61  DOPC      H14B          -12.5172644786      -21.5124900055       19.9324446731  MEMB      33              0.0000000000
      4928        61  DOPC      H14C          -12.2652852056      -23.0265527514       18.9268608487  MEMB      33              0.0000000000
      4929        61  DOPC      C15           -12.2900343512      -23.2952356177       21.8453601214  MEMB      33              0.0000000000
      4930        61  DOPC      H15A          -11.4561354150      -23.7726277226       21.3522991536  MEMB      33              0.0000000000
      4931        61  DOPC      H15B          -12.5432856307      -24.0705430411       22.5532884032  MEMB      33              0.0000000000
      4932        61  DOPC      H15C          -11.9654721488      -22.3282538347       22.2003326417  MEMB      33              0.0000000000
      4933        61  DOPC      C11           -15.2175392322      -24.6954255276       19.5530150562  MEMB      33              0.0000000000
      4934        61  DOPC      H11A          -15.2584850893      -25.7973121204       19.4170357855  MEMB      33              0.0000000000
      4935        61  DOPC      H11B          -16.1255462683      -24.3608827232       20.0988404471  MEMB      33              0.0000000000
      4936        61  DOPC      P             -16.1886230364      -24.1334247686       17.1577026973  MEMB      33              0.0000000000
      4937        61  DOPC      O13           -17.2563870717      -23.1713828413       17.4662064353  MEMB      33              0.0000000000
      4938        61  DOPC      O14           -16.6381752925      -25.4833006159       16.7414626123  MEMB      33              0.0000000000
      4939        61  DOPC      O12           -15.0680415621      -24.1012844850       18.2670434280  MEMB      33              0.0000000000
      4940        61  DOPC      O11           -15.2778372220      -23.5237879579       15.9975084612  MEMB      33              0.0000000000
      4941        61  DOPC      C1            -14.6370644516      -22.2730613415       16.0850673862  MEMB      33              0.0000000000
      4942        61  DOPC      HA            -13.7683864836      -22.3329837749       16.7750884687  MEMB      33              0.0000000000
      4943        61  DOPC      HB            -15.2724808397      -21.4884366356       16.5486742420  MEMB      33              0.0000000000
      4944        61  DOPC      C2            -13.9346526110      -21.8430144111       14.7839390809  MEMB      33              0.0000000000
      4945        61  DOPC      HS            -13.4643528063      -20.8746961763       15.0587102418  MEMB      33              0.0000000000
      4946        61  DOPC      O21           -14.7978334603      -21.7414038634       13.6627910223  MEMB      33              0.0000000000
      4947        61  DOPC      C21           -15.6167430394      -20.6440326232       13.6568542567  MEMB      33              0.0000000000
      4948        61  DOPC      O22           -15.6551963522      -19.7894912740       14.5060787322  MEMB      33              0.0000000000
      4949        61  DOPC      C22           -16.4446920694      -20.5748111496       12.3832611419  MEMB      33              0.0000000000
      4950        61  DOPC      H2R           -16.9722164462      -19.6118462339       12.2137388765  MEMB      33              0.0000000000
      4951        61  DOPC      H2S           -17.2529204353      -21.3343700487       12.3187790142  MEMB      33              0.0000000000
      4952        61  DOPC      C3            -12.7122164817      -22.8366632911       14.3988559227  MEMB      33              0.0000000000
      4953        61  DOPC      HX            -12.0222031396      -22.8403658230       15.2695966241  MEMB      33              0.0000000000
      4954        61  DOPC      HY            -12.1259577340      -22.4160331143       13.5540531065  MEMB      33              0.0000000000
      4955        61  DOPC      O31           -13.2699607455      -24.1681618462       14.0853012005  MEMB      33              0.0000000000
      4956        61  DOPC      C31           -12.8362951519      -25.2348646883       14.6914727544  MEMB      33              0.0000000000
      4957        61  DOPC      O32           -11.9451798426      -25.3182215527       15.4966437162  MEMB      33              0.0000000000
      4958        61  DOPC      C32           -13.7085111171      -26.4291232504       14.3483819421  MEMB      33              0.0000000000
      4959        61  DOPC      H2X           -14.2686571946      -26.7347569047       15.2578573174  MEMB      33              0.0000000000
      4960        61  DOPC      H2Y           -14.4224783044      -26.2726740319       13.5116648361  MEMB      33              0.0000000000
      4961        61  DOPC      C23           -15.6831453730      -20.7098911380       11.0817370905  MEMB      33              0.0000000000
      4962        61  DOPC      H3R           -16.4238297394      -20.6621179344       10.2550419916  MEMB      33              0.0000000000
      4963        61  DOPC      H3S           -15.3159340793      -21.7529964333       10.9749282607  MEMB      33              0.0000000000
      4964        61  DOPC      C24           -14.5030315129      -19.6838086551       10.8465955185  MEMB      33              0.0000000000
      4965        61  DOPC      H4R           -13.8478049330      -19.6713789602       11.7437267975  MEMB      33              0.0000000000
      4966        61  DOPC      H4S           -15.0806421762      -18.7347818419       10.8406628448  MEMB      33              0.0000000000
      4967        61  DOPC      C25           -13.6801901739      -19.8617186207        9.5546664471  MEMB      33              0.0000000000
      4968        61  DOPC      H5R           -12.8896480032      -20.6224341508        9.7298120706  MEMB      33              0.0000000000
      4969        61  DOPC      H5S           -13.1820932821      -18.8758367217        9.4352647820  MEMB      33              0.0000000000
      4970        61  DOPC      C26           -14.4019303162      -20.0472900476        8.1325057541  MEMB      33              0.0000000000
      4971        61  DOPC      H6R           -15.1793769746      -19.2666413526        7.9893780197  MEMB      33              0.0000000000
      4972        61  DOPC      H6S           -15.0866225107      -20.9217962077        8.1050071047  MEMB      33              0.0000000000
      4973        61  DOPC      C27           -13.2936164641      -19.9219257137        7.0929207960  MEMB      33              0.0000000000
      4974        61  DOPC      H7R           -12.3352710796      -20.4536714399        7.2749692514  MEMB      33              0.0000000000
      4975        61  DOPC      H7S           -12.8899580971      -18.8873457028        7.0609135169  MEMB      33              0.0000000000
      4976        61  DOPC      C28           -13.8595832165      -20.2656270644        5.7465342104  MEMB      33              0.0000000000
      4977        61  DOPC      H8R           -13.0272501879      -19.9850141206        5.0662408644  MEMB      33              0.0000000000
      4978        61  DOPC      H8S           -14.5465973840      -19.4940356284        5.3379033139  MEMB      33              0.0000000000
      4979        61  DOPC      C29           -14.2691288224      -21.6929487711        5.5304860939  MEMB      33              0.0000000000
      4980        61  DOPC      H9R           -13.6487640451      -22.5816870969        5.7183473916  MEMB      33              0.0000000000
      4981        61  DOPC      C210          -15.5226640682      -22.1229978925        5.1698239079  MEMB      33              0.0000000000
      4982        61  DOPC      H10R          -15.5662003068      -23.1386670405        4.7496800500  MEMB      33              0.0000000000
      4983        61  DOPC      C211          -16.7776399786      -21.3553385273        4.9204178529  MEMB      33              0.0000000000
      4984        61  DOPC      H11R          -16.8135522595      -20.4520351107        5.5662307358  MEMB      33              0.0000000000
      4985        61  DOPC      H11S          -17.6895913381      -21.8553584181        5.3111172460  MEMB      33              0.0000000000
      4986        61  DOPC      C212          -17.0914554464      -20.7991734187        3.5311180474  MEMB      33              0.0000000000
      4987        61  DOPC      H12R          -16.2391921003      -20.1728591475        3.1909730664  MEMB      33              0.0000000000
      4988        61  DOPC      H12S          -18.0493372232      -20.2374983053        3.5672321302  MEMB      33              0.0000000000
      4989        61  DOPC      C213          -17.2256376248      -21.8962236294        2.4799712865  MEMB      33              0.0000000000
      4990        61  DOPC      H13R          -17.8680241705      -21.4327223264        1.7009799931  MEMB      33              0.0000000000
      4991        61  DOPC      H13S          -17.8865429225      -22.6968927712        2.8755147639  MEMB      33              0.0000000000
      4992        61  DOPC      C214          -15.8960184586      -22.4337670290        1.8520655203  MEMB      33              0.0000000000
      4993        61  DOPC      H14R          -15.2538963080      -22.9884358684        2.5692423919  MEMB      33              0.0000000000
      4994        61  DOPC      H14S          -15.2950998289      -21.6208230561        1.3912636465  MEMB      33              0.0000000000
      4995        61  DOPC      C215          -16.2447537329      -23.3904328216        0.7169391739  MEMB      33              0.0000000000
      4996        61  DOPC      H15R          -16.9744729617      -23.0037660273       -0.0262428180  MEMB      33              0.0000000000
      4997        61  DOPC      H15S          -16.7662042672      -24.2532221091        1.1838509146  MEMB      33              0.0000000000
      4998        61  DOPC      C216          -15.0466939466      -23.8660058980       -0.1047889232  MEMB      33              0.0000000000
      4999        61  DOPC      H16R          -14.2704719776      -23.0794055121       -0.2190693340  MEMB      33              0.0000000000
      5000        61  DOPC      H16S          -15.4368809224      -24.1901869667       -1.0932121686  MEMB      33              0.0000000000
      5001        61  DOPC      C217          -14.2660281757      -25.1591822355        0.4247296505  MEMB      33              0.0000000000
      5002        61  DOPC      H17R          -13.8381961131      -24.8345844574        1.3973123417  MEMB      33              0.0000000000
      5003        61  DOPC      H17S          -13.3742620879      -25.4166520108       -0.1858315569  MEMB      33              0.0000000000
      5004        61  DOPC      C218          -15.1440471682      -26.3789598631        0.7998037296  MEMB      33              0.0000000000
      5005        61  DOPC      H18R          -14.4299477547      -27.2299688625        0.7869028440  MEMB      33              0.0000000000
      5006        61  DOPC      H18S          -16.0270214622      -26.5045865274        0.1373112126  MEMB      33              0.0000000000
      5007        61  DOPC      H18T          -15.5590561316      -26.2495428565        1.8222216523  MEMB      33              0.0000000000
      5008        61  DOPC      C33           -12.8885930098      -27.7143271275       14.0482244678  MEMB      33              0.0000000000
      5009        61  DOPC      H3X           -13.5689044201      -28.5725292327       14.2352717201  MEMB      33              0.0000000000
      5010        61  DOPC      H3Y           -11.9327073630      -27.7862397632       14.6098580627  MEMB      33              0.0000000000
      5011        61  DOPC      C34           -12.4722313815      -27.8198883680       12.5728476233  MEMB      33              0.0000000000
      5012        61  DOPC      H4X           -11.8652159177      -28.7434145007       12.4590364147  MEMB      33              0.0000000000
      5013        61  DOPC      H4Y           -11.7289324103      -26.9960745001       12.5166496382  MEMB      33              0.0000000000
      5014        61  DOPC      C35           -13.5219762576      -27.7803738205       11.4800368393  MEMB      33              0.0000000000
      5015        61  DOPC      H5X           -14.0173599410      -26.7892702089       11.5614590766  MEMB      33              0.0000000000
      5016        61  DOPC      H5Y           -14.2074146350      -28.5983483047       11.7889270172  MEMB      33              0.0000000000
      5017        61  DOPC      C36           -12.9648680193      -27.9869787214       10.0873095839  MEMB      33              0.0000000000
      5018        61  DOPC      H6X           -12.6876297728      -29.0560023110        9.9662777037  MEMB      33              0.0000000000
      5019        61  DOPC      H6Y           -13.7935263097      -27.8830168402        9.3546175116  MEMB      33              0.0000000000
      5020        61  DOPC      C37           -11.8605113124      -27.0508032618        9.5387218466  MEMB      33              0.0000000000
      5021        61  DOPC      H7X           -12.1407960466      -25.9875526680        9.6976536473  MEMB      33              0.0000000000
      5022        61  DOPC      H7Y           -10.9542136446      -27.0283788178       10.1809386528  MEMB      33              0.0000000000
      5023        61  DOPC      C38           -11.4899519823      -27.3932454816        8.0508665968  MEMB      33              0.0000000000
      5024        61  DOPC      H8X           -12.1755306121      -26.8922510529        7.3344108057  MEMB      33              0.0000000000
      5025        61  DOPC      H8Y           -11.6802246607      -28.4788542336        7.9109711786  MEMB      33              0.0000000000
      5026        61  DOPC      C39           -10.0507323595      -27.0264728517        7.7359832766  MEMB      33              0.0000000000
      5027        61  DOPC      H9X            -9.2652100980      -27.7224466583        8.0654903547  MEMB      33              0.0000000000
      5028        61  DOPC      C310           -9.7111496532      -25.9867366102        6.9465803112  MEMB      33              0.0000000000
      5029        61  DOPC      H10X           -8.6580472197      -25.7718909062        6.7124491262  MEMB      33              0.0000000000
      5030        61  DOPC      C311          -10.7117525206      -25.0045353203        6.3020807609  MEMB      33              0.0000000000
      5031        61  DOPC      H11X          -10.2621074068      -23.9894492837        6.3438030920  MEMB      33              0.0000000000
      5032        61  DOPC      H11Y          -11.5117725754      -24.9179659608        7.0681058471  MEMB      33              0.0000000000
      5033        61  DOPC      C312          -11.2401849345      -25.4306372072        4.9408251844  MEMB      33              0.0000000000
      5034        61  DOPC      H12X          -11.9433025051      -26.2635225201        5.1558796380  MEMB      33              0.0000000000
      5035        61  DOPC      H12Y          -10.3737846085      -25.6516822873        4.2814227697  MEMB      33              0.0000000000
      5036        61  DOPC      C313          -12.0608168624      -24.4301851260        4.1955199501  MEMB      33              0.0000000000
      5037        61  DOPC      H13X          -12.5113668784      -25.0370431356        3.3812418094  MEMB      33              0.0000000000
      5038        61  DOPC      H13Y          -12.9052635914      -23.9899596266        4.7677369160  MEMB      33              0.0000000000
      5039        61  DOPC      C314          -11.2095673895      -23.2151553978        3.8582747679  MEMB      33              0.0000000000
      5040        61  DOPC      H14X          -10.9072870197      -22.5632345521        4.7055923165  MEMB      33              0.0000000000
      5041        61  DOPC      H14Y          -10.3677116085      -23.6069223113        3.2482593902  MEMB      33              0.0000000000
      5042        61  DOPC      C315          -11.8167752670      -22.1784069913        2.9828441659  MEMB      33              0.0000000000
      5043        61  DOPC      H15X          -12.8549725941      -22.1531191329        3.3775941545  MEMB      33              0.0000000000
      5044        61  DOPC      H15Y          -11.8652789191      -22.5894082343        1.9518022155  MEMB      33              0.0000000000
      5045        61  DOPC      C316          -11.1256241526      -20.7578158344        2.8835130392  MEMB      33              0.0000000000
      5046        61  DOPC      H16X          -11.1892341266      -20.2658778323        3.8776322308  MEMB      33              0.0000000000
      5047        61  DOPC      H16Y          -10.0714066083      -21.0152637998        2.6454666110  MEMB      33              0.0000000000
      5048        61  DOPC      C317          -11.8225646241      -19.9070738145        1.8521820386  MEMB      33              0.0000000000
      5049        61  DOPC      H17X          -12.8313043265      -19.7612583505        2.2943392292  MEMB      33              0.0000000000
      5050        61  DOPC      H17Y          -11.2729335858      -18.9437590436        1.7869818527  MEMB      33              0.0000000000
      5051        61  DOPC      C318          -11.8409350173      -20.3855422954        0.3633197574  MEMB      33              0.0000000000
      5052        61  DOPC      H18X          -12.3655536313      -19.5819476069       -0.1964406983  MEMB      33              0.0000000000
      5053        61  DOPC      H18Y          -10.8773369445      -20.4489186350       -0.1860272665  MEMB      33              0.0000000000
      5054        61  DOPC      H18Z          -12.4162199910      -21.3273868968        0.2356606999  MEMB      33              0.0000000000
      5055        62  DOPC      N              28.9710711889        6.5943590176       20.0622450405  MEMB      34              0.0000000000
      5056        62  DOPC      C12            27.5291680936        7.1542685189       20.2068697392  MEMB      34              0.0000000000
      5057        62  DOPC      H12A           27.5346846132        7.7751106094       21.0905691539  MEMB      34              0.0000000000
      5058        62  DOPC      H12B           26.9450060205        6.3023013873       20.5219992187  MEMB      34              0.0000000000
      5059        62  DOPC      C13            29.1237510151        5.7002147608       18.8230426424  MEMB      34              0.0000000000
      5060        62  DOPC      H13A           28.4061675165        4.9115281701       18.9946456026  MEMB      34              0.0000000000
      5061        62  DOPC      H13B           28.8265284908        6.1582551841       17.8912391679  MEMB      34              0.0000000000
      5062        62  DOPC      H13C           30.1588364231        5.4363002896       18.6638337479  MEMB      34              0.0000000000
      5063        62  DOPC      C14            29.2910181121        5.7769122147       21.2789592496  MEMB      34              0.0000000000
      5064        62  DOPC      H14A           28.6979098771        4.8910284166       21.4516798595  MEMB      34              0.0000000000
      5065        62  DOPC      H14B           30.3373925509        5.5310004922       21.1739468509  MEMB      34              0.0000000000
      5066        62  DOPC      H14C           29.2046007500        6.3770445195       22.1727004824  MEMB      34              0.0000000000
      5067        62  DOPC      C15            30.1330537204        7.6117446288       20.0800043358  MEMB      34              0.0000000000
      5068        62  DOPC      H15A           31.0883291551        7.2256655632       20.4037200158  MEMB      34              0.0000000000
      5069        62  DOPC      H15B           29.8708912632        8.3979543237       20.7724963567  MEMB      34              0.0000000000
      5070        62  DOPC      H15C           30.2142863973        8.0693792430       19.1051341904  MEMB      34              0.0000000000
      5071        62  DOPC      C11            26.8799654840        7.8720756924       19.0397039179  MEMB      34              0.0000000000
      5072        62  DOPC      H11A           26.8537449529        7.3180675707       18.0770469666  MEMB      34              0.0000000000
      5073        62  DOPC      H11B           25.9091093234        8.2170611863       19.4553290716  MEMB      34              0.0000000000
      5074        62  DOPC      P              27.4405082140       10.1740309202       17.8562382140  MEMB      34              0.0000000000
      5075        62  DOPC      O13            27.5451947242        9.4303461173       16.6052130014  MEMB      34              0.0000000000
      5076        62  DOPC      O14            28.2887608947       11.3488593125       18.0013938239  MEMB      34              0.0000000000
      5077        62  DOPC      O12            27.5897987724        9.0976896660       19.0046147887  MEMB      34              0.0000000000
      5078        62  DOPC      O11            25.9148458851       10.5968457825       18.0417152430  MEMB      34              0.0000000000
      5079        62  DOPC      C1             25.2997575893       11.5103816381       17.1553367550  MEMB      34              0.0000000000
      5080        62  DOPC      HA             25.9920056969       12.2379966733       16.6802686234  MEMB      34              0.0000000000
      5081        62  DOPC      HB             24.6198690579       12.1774880491       17.7272122209  MEMB      34              0.0000000000
      5082        62  DOPC      C2             24.2727221008       10.7982361016       16.1598408415  MEMB      34              0.0000000000
      5083        62  DOPC      HS             23.8249045069        9.9614185746       16.7373500173  MEMB      34              0.0000000000
      5084        62  DOPC      O21            25.0657329927       10.3601407203       15.0661065411  MEMB      34              0.0000000000
      5085        62  DOPC      C21            24.8269537549        9.2059933796       14.5472046699  MEMB      34              0.0000000000
      5086        62  DOPC      O22            23.7915715669        8.5625103608       14.7559074798  MEMB      34              0.0000000000
      5087        62  DOPC      C22            25.7971076905        8.8168475293       13.4637908291  MEMB      34              0.0000000000
      5088        62  DOPC      H2R            26.8595617635        9.0249319799       13.7132165651  MEMB      34              0.0000000000
      5089        62  DOPC      H2S            25.5044443208        9.3675664204       12.5443463808  MEMB      34              0.0000000000
      5090        62  DOPC      C3             23.0949640836       11.6656967315       15.7210785021  MEMB      34              0.0000000000
      5091        62  DOPC      HX             22.6536690924       12.2769942190       16.5371025193  MEMB      34              0.0000000000
      5092        62  DOPC      HY             22.2841984555       11.0679127364       15.2524271985  MEMB      34              0.0000000000
      5093        62  DOPC      O31            23.6243200242       12.6675565762       14.8054212008  MEMB      34              0.0000000000
      5094        62  DOPC      C31            23.3823171346       12.5722035100       13.4933579245  MEMB      34              0.0000000000
      5095        62  DOPC      O32            22.6449580973       11.7838415060       12.9217502849  MEMB      34              0.0000000000
      5096        62  DOPC      C32            24.2246717241       13.6861063339       12.8129197823  MEMB      34              0.0000000000
      5097        62  DOPC      H2X            23.6587532609       14.3965936411       12.1731822865  MEMB      34              0.0000000000
      5098        62  DOPC      H2Y            24.6773407822       14.3630749889       13.5686483927  MEMB      34              0.0000000000
      5099        62  DOPC      C23            25.5595801892        7.3426126184       13.1013506066  MEMB      34              0.0000000000
      5100        62  DOPC      H3R            24.5411970848        7.1591634455       12.6969211909  MEMB      34              0.0000000000
      5101        62  DOPC      H3S            25.7714607097        6.7511501467       14.0176474083  MEMB      34              0.0000000000
      5102        62  DOPC      C24            26.5042406040        6.8093152154       12.0127020487  MEMB      34              0.0000000000
      5103        62  DOPC      H4R            27.3193506155        6.1993978787       12.4575810405  MEMB      34              0.0000000000
      5104        62  DOPC      H4S            26.8119970528        7.6157671744       11.3132431799  MEMB      34              0.0000000000
      5105        62  DOPC      C25            25.8873163914        5.8095201295       11.1054176780  MEMB      34              0.0000000000
      5106        62  DOPC      H5R            24.9138356266        6.2416801579       10.7893576611  MEMB      34              0.0000000000
      5107        62  DOPC      H5S            25.7114714859        4.9121954360       11.7364544176  MEMB      34              0.0000000000
      5108        62  DOPC      C26            26.8087172518        5.2292484550        9.9538767489  MEMB      34              0.0000000000
      5109        62  DOPC      H6R            26.1177115229        4.7105928952        9.2554298639  MEMB      34              0.0000000000
      5110        62  DOPC      H6S            27.4341984500        4.4234053847       10.3940036200  MEMB      34              0.0000000000
      5111        62  DOPC      C27            27.6024845230        6.1672039020        9.0129563552  MEMB      34              0.0000000000
      5112        62  DOPC      H7R            28.1690060121        5.6190995159        8.2300415225  MEMB      34              0.0000000000
      5113        62  DOPC      H7S            28.3789315467        6.7504321679        9.5526749906  MEMB      34              0.0000000000
      5114        62  DOPC      C28            26.6879520697        7.2020683824        8.2000056935  MEMB      34              0.0000000000
      5115        62  DOPC      H8R            27.3228147656        7.8460631518        7.5546051779  MEMB      34              0.0000000000
      5116        62  DOPC      H8S            26.3464511830        7.8690489977        9.0202707077  MEMB      34              0.0000000000
      5117        62  DOPC      C29            25.5443375326        6.5682833750        7.4451701916  MEMB      34              0.0000000000
      5118        62  DOPC      H9R            25.8830628407        5.7789860889        6.7579476506  MEMB      34              0.0000000000
      5119        62  DOPC      C210           24.2529243353        6.8585111994        7.5164982323  MEMB      34              0.0000000000
      5120        62  DOPC      H10R           23.4808833728        6.3749240519        6.8999782403  MEMB      34              0.0000000000
      5121        62  DOPC      C211           23.5960754498        7.9769890087        8.3435424684  MEMB      34              0.0000000000
      5122        62  DOPC      H11R           23.8800388712        7.9326937685        9.4167263567  MEMB      34              0.0000000000
      5123        62  DOPC      H11S           22.4886763149        8.0318785430        8.2730084071  MEMB      34              0.0000000000
      5124        62  DOPC      C212           24.0310402682        9.3841204304        7.8591990469  MEMB      34              0.0000000000
      5125        62  DOPC      H12R           25.0990137459        9.6696207334        7.9698484282  MEMB      34              0.0000000000
      5126        62  DOPC      H12S           23.5484732554       10.0649975770        8.5925859749  MEMB      34              0.0000000000
      5127        62  DOPC      C213           23.4957062633        9.7372185140        6.4354248247  MEMB      34              0.0000000000
      5128        62  DOPC      H13R           23.0460657474       10.7523174247        6.4768829135  MEMB      34              0.0000000000
      5129        62  DOPC      H13S           22.7054990243        9.0091731320        6.1528589929  MEMB      34              0.0000000000
      5130        62  DOPC      C214           24.5172632079        9.6402050067        5.3077835588  MEMB      34              0.0000000000
      5131        62  DOPC      H14R           25.0008835688        8.6413526219        5.3599990504  MEMB      34              0.0000000000
      5132        62  DOPC      H14S           25.2415669278       10.3671317191        5.7335570637  MEMB      34              0.0000000000
      5133        62  DOPC      C215           23.9159349538        9.9027997912        3.9468428909  MEMB      34              0.0000000000
      5134        62  DOPC      H15R           24.2390111075       10.8499920158        3.4643795240  MEMB      34              0.0000000000
      5135        62  DOPC      H15S           22.8214310958        9.7795166822        4.0923887934  MEMB      34              0.0000000000
      5136        62  DOPC      C216           24.4086676054        8.7265130376        2.9643083970  MEMB      34              0.0000000000
      5137        62  DOPC      H16R           23.7620482146        8.9280105501        2.0836256327  MEMB      34              0.0000000000
      5138        62  DOPC      H16S           24.0518265693        7.8107167477        3.4822879020  MEMB      34              0.0000000000
      5139        62  DOPC      C217           25.9200153064        8.7226628369        2.6014085718  MEMB      34              0.0000000000
      5140        62  DOPC      H17R           26.5238121592        8.5757063506        3.5223618205  MEMB      34              0.0000000000
      5141        62  DOPC      H17S           26.3202340056        9.6645534951        2.1689884442  MEMB      34              0.0000000000
      5142        62  DOPC      C218           26.2507265748        7.6921245305        1.5634109568  MEMB      34              0.0000000000
      5143        62  DOPC      H18R           27.3160334602        7.7468936068        1.2528594607  MEMB      34              0.0000000000
      5144        62  DOPC      H18S           25.4993545851        7.8758832790        0.7659203542  MEMB      34              0.0000000000
      5145        62  DOPC      H18T           26.0210823281        6.6838282431        1.9695184976  MEMB      34              0.0000000000
      5146        62  DOPC      C33            25.2447930014       13.1164916941       11.7868057555  MEMB      34              0.0000000000
      5147        62  DOPC      H3X            25.4958022790       13.9493299820       11.0956504230  MEMB      34              0.0000000000
      5148        62  DOPC      H3Y            24.7931614055       12.2649855830       11.2342780458  MEMB      34              0.0000000000
      5149        62  DOPC      C34            26.4528976267       12.5943799722       12.4848572422  MEMB      34              0.0000000000
      5150        62  DOPC      H4X            26.2690594925       11.8726047774       13.3092149055  MEMB      34              0.0000000000
      5151        62  DOPC      H4Y            27.0046238733       13.4146361201       12.9919067038  MEMB      34              0.0000000000
      5152        62  DOPC      C35            27.4001752703       11.9143230902       11.4667385801  MEMB      34              0.0000000000
      5153        62  DOPC      H5X            27.4143895314       12.6434591648       10.6285983151  MEMB      34              0.0000000000
      5154        62  DOPC      H5Y            26.9315075930       10.9977826047       11.0488569266  MEMB      34              0.0000000000
      5155        62  DOPC      C36            28.8373055226       11.5561847897       11.9202121505  MEMB      34              0.0000000000
      5156        62  DOPC      H6X            29.3201676248       12.5197962053       12.1896901412  MEMB      34              0.0000000000
      5157        62  DOPC      H6Y            28.9091394300       10.8823919697       12.8006461513  MEMB      34              0.0000000000
      5158        62  DOPC      C37            29.6003893738       10.7447605419       10.7820365078  MEMB      34              0.0000000000
      5159        62  DOPC      H7X            30.1864340008       11.5358470000       10.2672012659  MEMB      34              0.0000000000
      5160        62  DOPC      H7Y            30.2723055128       10.0359397751       11.3115859494  MEMB      34              0.0000000000
      5161        62  DOPC      C38            28.8085540855        9.9920740612        9.7515187167  MEMB      34              0.0000000000
      5162        62  DOPC      H8X            28.1466083946       10.6503863491        9.1492111385  MEMB      34              0.0000000000
      5163        62  DOPC      H8Y            28.0917946200        9.3050316417       10.2500658576  MEMB      34              0.0000000000
      5164        62  DOPC      C39            29.5810745276        9.2165774241        8.8022501316  MEMB      34              0.0000000000
      5165        62  DOPC      H9X            30.0088380133        8.2620920827        9.1428032455  MEMB      34              0.0000000000
      5166        62  DOPC      C310           30.0142980302        9.5775781714        7.5510882715  MEMB      34              0.0000000000
      5167        62  DOPC      H10X           30.4469820264        8.7984561894        6.9062991978  MEMB      34              0.0000000000
      5168        62  DOPC      C311           29.7012933933       10.8897235206        7.0163427403  MEMB      34              0.0000000000
      5169        62  DOPC      H11X           30.6749246907       11.3221923975        6.7011698036  MEMB      34              0.0000000000
      5170        62  DOPC      H11Y           29.3067220987       11.6252006634        7.7496284174  MEMB      34              0.0000000000
      5171        62  DOPC      C312           28.7617184324       10.8015612789        5.7838494678  MEMB      34              0.0000000000
      5172        62  DOPC      H12X           27.9015942823       10.1395299648        6.0209609462  MEMB      34              0.0000000000
      5173        62  DOPC      H12Y           29.4324697929       10.3169566307        5.0425178237  MEMB      34              0.0000000000
      5174        62  DOPC      C313           28.2725224539       12.1296131070        5.1852613577  MEMB      34              0.0000000000
      5175        62  DOPC      H13X           27.4700925773       12.3550736828        5.9198322996  MEMB      34              0.0000000000
      5176        62  DOPC      H13Y           29.1175393843       12.8498575185        5.1463319378  MEMB      34              0.0000000000
      5177        62  DOPC      C314           27.8271802502       12.0168180851        3.7363728967  MEMB      34              0.0000000000
      5178        62  DOPC      H14X           28.6941995926       12.0002472614        3.0418773455  MEMB      34              0.0000000000
      5179        62  DOPC      H14Y           27.3040085865       11.0626647672        3.5123107915  MEMB      34              0.0000000000
      5180        62  DOPC      C315           26.8482322262       13.0849648262        3.2551105157  MEMB      34              0.0000000000
      5181        62  DOPC      H15X           25.8964433102       13.0583103222        3.8275683928  MEMB      34              0.0000000000
      5182        62  DOPC      H15Y           26.6126738333       12.8202561634        2.2021317084  MEMB      34              0.0000000000
      5183        62  DOPC      C316           27.3017788778       14.5750977217        3.2910978404  MEMB      34              0.0000000000
      5184        62  DOPC      H16X           26.5797316162       15.1871859204        2.7094468436  MEMB      34              0.0000000000
      5185        62  DOPC      H16Y           27.3634038129       14.8490561175        4.3660257538  MEMB      34              0.0000000000
      5186        62  DOPC      C317           28.6834572298       14.7683881696        2.7356284112  MEMB      34              0.0000000000
      5187        62  DOPC      H17X           29.0714394781       15.7951260995        2.9076738177  MEMB      34              0.0000000000
      5188        62  DOPC      H17Y           29.3528764395       14.0824294481        3.2974649309  MEMB      34              0.0000000000
      5189        62  DOPC      C318           28.6157083498       14.4081291576        1.2516215338  MEMB      34              0.0000000000
      5190        62  DOPC      H18X           27.8398475668       15.0025418693        0.7233856470  MEMB      34              0.0000000000
      5191        62  DOPC      H18Y           29.4836065327       14.7729281832        0.6617102986  MEMB      34              0.0000000000
      5192        62  DOPC      H18Z           28.5048184999       13.3182587960        1.0666699858  MEMB      34              0.0000000000
      5193        63  DOPC      N             -23.5117866851      -17.3368278521       18.2881711152  MEMB      35              0.0000000000
      5194        63  DOPC      C12           -22.3443533521      -16.4646334505       17.7948401017  MEMB      35              0.0000000000
      5195        63  DOPC      H12A          -22.8240153096      -15.5193247895       17.5881619847  MEMB      35              0.0000000000
      5196        63  DOPC      H12B          -22.0945436768      -16.9048810965       16.8408080401  MEMB      35              0.0000000000
      5197        63  DOPC      C13           -24.0073869891      -16.7959326772       19.6173616683  MEMB      35              0.0000000000
      5198        63  DOPC      H13A          -24.6091843180      -15.9019299272       19.5466587010  MEMB      35              0.0000000000
      5199        63  DOPC      H13B          -24.6143388549      -17.6285563146       19.9410080941  MEMB      35              0.0000000000
      5200        63  DOPC      H13C          -23.1945107334      -16.7886676643       20.3284028047  MEMB      35              0.0000000000
      5201        63  DOPC      C14           -23.0026550088      -18.7076861404       18.6888924847  MEMB      35              0.0000000000
      5202        63  DOPC      H14A          -23.8475439546      -19.2161439930       19.1293847319  MEMB      35              0.0000000000
      5203        63  DOPC      H14B          -22.6862915577      -19.2133316992       17.7885388312  MEMB      35              0.0000000000
      5204        63  DOPC      H14C          -22.2250202521      -18.7469755094       19.4373178329  MEMB      35              0.0000000000
      5205        63  DOPC      C15           -24.6095659213      -17.3750340472       17.3483436634  MEMB      35              0.0000000000
      5206        63  DOPC      H15A          -25.3768652526      -18.1132833566       17.5290064670  MEMB      35              0.0000000000
      5207        63  DOPC      H15B          -24.2981595307      -17.6868338266       16.3623380405  MEMB      35              0.0000000000
      5208        63  DOPC      H15C          -25.1324935513      -16.4322039215       17.2849548164  MEMB      35              0.0000000000
      5209        63  DOPC      C11           -21.0608896700      -16.2097945168       18.5467937295  MEMB      35              0.0000000000
      5210        63  DOPC      H11A          -20.1709907261      -15.9400267522       17.9388245883  MEMB      35              0.0000000000
      5211        63  DOPC      H11B          -21.2273601407      -15.3054673618       19.1703327631  MEMB      35              0.0000000000
      5212        63  DOPC      P             -19.3215775781      -17.6915384794       19.8121642386  MEMB      35              0.0000000000
      5213        63  DOPC      O13           -19.4289425429      -18.8951063431       20.7143923014  MEMB      35              0.0000000000
      5214        63  DOPC      O14           -18.6550853331      -16.4739669245       20.3572093282  MEMB      35              0.0000000000
      5215        63  DOPC      O12           -20.7926529525      -17.2539964912       19.4644004998  MEMB      35              0.0000000000
      5216        63  DOPC      O11           -18.6640314755      -17.9778634766       18.3674308638  MEMB      35              0.0000000000
      5217        63  DOPC      C1            -19.2174671741      -19.1083882848       17.7383169653  MEMB      35              0.0000000000
      5218        63  DOPC      HA            -20.1672366691      -18.8878774184       17.2057438905  MEMB      35              0.0000000000
      5219        63  DOPC      HB            -19.4628952391      -20.0167344078       18.3290734133  MEMB      35              0.0000000000
      5220        63  DOPC      C2            -18.2183372455      -19.5407755611       16.5611290157  MEMB      35              0.0000000000
      5221        63  DOPC      HS            -17.2153018636      -19.5664726788       17.0381833586  MEMB      35              0.0000000000
      5222        63  DOPC      O21           -18.2499024661      -18.5683650795       15.4924629550  MEMB      35              0.0000000000
      5223        63  DOPC      C21           -17.2674795748      -18.5158329481       14.6243726572  MEMB      35              0.0000000000
      5224        63  DOPC      O22           -16.3945047110      -19.4309506252       14.4999385489  MEMB      35              0.0000000000
      5225        63  DOPC      C22           -17.3826904134      -17.3603178077       13.6631492684  MEMB      35              0.0000000000
      5226        63  DOPC      H2R           -16.8182014343      -16.4566305567       13.9778288595  MEMB      35              0.0000000000
      5227        63  DOPC      H2S           -18.4448557453      -17.0673020280       13.5207859262  MEMB      35              0.0000000000
      5228        63  DOPC      C3            -18.5643639845      -20.9811277920       16.0335412960  MEMB      35              0.0000000000
      5229        63  DOPC      HX            -18.4213489548      -21.7070765747       16.8623152622  MEMB      35              0.0000000000
      5230        63  DOPC      HY            -17.8680110801      -21.3319686373       15.2421348107  MEMB      35              0.0000000000
      5231        63  DOPC      O31           -19.9392050589      -21.0668473488       15.6712475550  MEMB      35              0.0000000000
      5232        63  DOPC      C31           -20.1441743459      -20.7629881210       14.3906746646  MEMB      35              0.0000000000
      5233        63  DOPC      O32           -19.4443716067      -20.4528862894       13.4749047785  MEMB      35              0.0000000000
      5234        63  DOPC      C32           -21.5833546023      -20.7526381180       14.1594270929  MEMB      35              0.0000000000
      5235        63  DOPC      H2X           -21.8082006971      -20.4585086544       13.1119285880  MEMB      35              0.0000000000
      5236        63  DOPC      H2Y           -22.0298287796      -21.7372378052       14.4154448401  MEMB      35              0.0000000000
      5237        63  DOPC      C23           -16.7272661651      -17.7752210382       12.2743914461  MEMB      35              0.0000000000
      5238        63  DOPC      H3R           -17.2495323666      -18.6309866722       11.7956180480  MEMB      35              0.0000000000
      5239        63  DOPC      H3S           -15.6471120012      -18.0092684471       12.3875721373  MEMB      35              0.0000000000
      5240        63  DOPC      C24           -16.7313822061      -16.6298161862       11.2697658428  MEMB      35              0.0000000000
      5241        63  DOPC      H4R           -16.5991556112      -15.6482621686       11.7731427606  MEMB      35              0.0000000000
      5242        63  DOPC      H4S           -17.7278161631      -16.4704451068       10.8049635450  MEMB      35              0.0000000000
      5243        63  DOPC      C25           -15.7680153921      -16.9450865544       10.0949507667  MEMB      35              0.0000000000
      5244        63  DOPC      H5R           -14.7457728782      -17.1058155172       10.4993110477  MEMB      35              0.0000000000
      5245        63  DOPC      H5S           -15.7667756580      -15.9707251592        9.5611532694  MEMB      35              0.0000000000
      5246        63  DOPC      C26           -15.9074442177      -18.1208381894        9.2093760697  MEMB      35              0.0000000000
      5247        63  DOPC      H6R           -15.7174848514      -18.9707351857        9.8992389736  MEMB      35              0.0000000000
      5248        63  DOPC      H6S           -15.1750611756      -18.0360698846        8.3782622749  MEMB      35              0.0000000000
      5249        63  DOPC      C27           -17.2841342535      -18.2123703523        8.5090189879  MEMB      35              0.0000000000
      5250        63  DOPC      H7R           -17.3663532611      -17.3428626282        7.8223470148  MEMB      35              0.0000000000
      5251        63  DOPC      H7S           -18.0700464952      -17.9747429091        9.2574805234  MEMB      35              0.0000000000
      5252        63  DOPC      C28           -17.5610873475      -19.4356815419        7.7356828609  MEMB      35              0.0000000000
      5253        63  DOPC      H8R           -16.8802068702      -19.5639172816        6.8671904437  MEMB      35              0.0000000000
      5254        63  DOPC      H8S           -18.5835714097      -19.2746614129        7.3320489472  MEMB      35              0.0000000000
      5255        63  DOPC      C29           -17.6692917787      -20.7387452188        8.4065355225  MEMB      35              0.0000000000
      5256        63  DOPC      H9R           -16.8728016938      -21.4469292663        8.1343599910  MEMB      35              0.0000000000
      5257        63  DOPC      C210          -18.6326401950      -21.1409397923        9.2816166765  MEMB      35              0.0000000000
      5258        63  DOPC      H10R          -18.4856607522      -22.0997447502        9.8003548795  MEMB      35              0.0000000000
      5259        63  DOPC      C211          -19.7153117385      -20.2800265564        9.7643817774  MEMB      35              0.0000000000
      5260        63  DOPC      H11R          -19.6982524866      -19.2537825996        9.3391129229  MEMB      35              0.0000000000
      5261        63  DOPC      H11S          -19.6852480843      -20.1023122580       10.8606635125  MEMB      35              0.0000000000
      5262        63  DOPC      C212          -21.1779262912      -20.7939674792        9.4609150481  MEMB      35              0.0000000000
      5263        63  DOPC      H12R          -21.8652047194      -19.9315433364        9.5958000431  MEMB      35              0.0000000000
      5264        63  DOPC      H12S          -21.4044765417      -21.6543011407       10.1263633266  MEMB      35              0.0000000000
      5265        63  DOPC      C213          -21.2597403247      -21.2205207067        7.9552090799  MEMB      35              0.0000000000
      5266        63  DOPC      H13R          -21.8666697880      -22.1476732867        7.8755510955  MEMB      35              0.0000000000
      5267        63  DOPC      H13S          -20.2833683431      -21.5696004987        7.5562576020  MEMB      35              0.0000000000
      5268        63  DOPC      C214          -21.8077163074      -20.1812410370        6.9808307605  MEMB      35              0.0000000000
      5269        63  DOPC      H14R          -21.1403645710      -19.2971781716        7.0668271792  MEMB      35              0.0000000000
      5270        63  DOPC      H14S          -22.7383618227      -19.7360320914        7.3931519798  MEMB      35              0.0000000000
      5271        63  DOPC      C215          -21.9513213079      -20.5583553929        5.5328397405  MEMB      35              0.0000000000
      5272        63  DOPC      H15R          -20.9766567811      -20.9238371109        5.1445444000  MEMB      35              0.0000000000
      5273        63  DOPC      H15S          -22.1231913698      -19.6261566155        4.9533681376  MEMB      35              0.0000000000
      5274        63  DOPC      C216          -23.1006618455      -21.5535759729        5.1998126513  MEMB      35              0.0000000000
      5275        63  DOPC      H16R          -24.0528022921      -21.3707043184        5.7423137197  MEMB      35              0.0000000000
      5276        63  DOPC      H16S          -22.6941034702      -22.4914581102        5.6350229257  MEMB      35              0.0000000000
      5277        63  DOPC      C217          -23.3790625794      -21.7111879854        3.7434279072  MEMB      35              0.0000000000
      5278        63  DOPC      H17R          -24.0226848120      -22.6149555856        3.6861973223  MEMB      35              0.0000000000
      5279        63  DOPC      H17S          -22.4862352628      -22.0121588075        3.1547035889  MEMB      35              0.0000000000
      5280        63  DOPC      C218          -24.1152837585      -20.5565736214        3.0858435657  MEMB      35              0.0000000000
      5281        63  DOPC      H18R          -25.1664499027      -20.5463857842        3.4453812907  MEMB      35              0.0000000000
      5282        63  DOPC      H18S          -24.1511149505      -20.6305514339        1.9778886804  MEMB      35              0.0000000000
      5283        63  DOPC      H18T          -23.7164804830      -19.5693944591        3.4032623167  MEMB      35              0.0000000000
      5284        63  DOPC      C33           -22.2691849958      -19.6392737671       14.9572396357  MEMB      35              0.0000000000
      5285        63  DOPC      H3X           -22.0255732492      -19.8693971309       16.0164930642  MEMB      35              0.0000000000
      5286        63  DOPC      H3Y           -23.3783311646      -19.7011722887       14.9403803252  MEMB      35              0.0000000000
      5287        63  DOPC      C34           -21.8949895079      -18.2054139021       14.5402492593  MEMB      35              0.0000000000
      5288        63  DOPC      H4X           -20.8466055409      -18.0326443417       14.8648455553  MEMB      35              0.0000000000
      5289        63  DOPC      H4Y           -22.5774140590      -17.5898551176       15.1645129754  MEMB      35              0.0000000000
      5290        63  DOPC      C35           -22.0168808169      -17.8586411723       13.1327775107  MEMB      35              0.0000000000
      5291        63  DOPC      H5X           -23.0121179208      -18.0789377812       12.6908571156  MEMB      35              0.0000000000
      5292        63  DOPC      H5Y           -21.3325865224      -18.5018053084       12.5391428011  MEMB      35              0.0000000000
      5293        63  DOPC      C36           -21.6448773375      -16.4611429910       12.7354523131  MEMB      35              0.0000000000
      5294        63  DOPC      H6X           -21.7734623479      -15.6823450332       13.5172839864  MEMB      35              0.0000000000
      5295        63  DOPC      H6Y           -20.5376919194      -16.4858730496       12.6468529641  MEMB      35              0.0000000000
      5296        63  DOPC      C37           -22.2506934623      -15.8656669860       11.5324339910  MEMB      35              0.0000000000
      5297        63  DOPC      H7X           -23.3576854297      -15.8272005052       11.6185163004  MEMB      35              0.0000000000
      5298        63  DOPC      H7Y           -21.8191286530      -14.8568987811       11.3579074018  MEMB      35              0.0000000000
      5299        63  DOPC      C38           -22.0579923847      -16.6903076250       10.2284731194  MEMB      35              0.0000000000
      5300        63  DOPC      H8X           -22.4403021181      -17.7328962814       10.2626651886  MEMB      35              0.0000000000
      5301        63  DOPC      H8Y           -20.9805875850      -16.8808465749       10.0355611295  MEMB      35              0.0000000000
      5302        63  DOPC      C39           -22.7655259457      -16.0568526928        9.0890795087  MEMB      35              0.0000000000
      5303        63  DOPC      H9X           -23.7859827984      -15.7066303652        9.3035841037  MEMB      35              0.0000000000
      5304        63  DOPC      C310          -22.2175952514      -15.9534682594        7.8024687626  MEMB      35              0.0000000000
      5305        63  DOPC      H10X          -22.8463885046      -15.5613506950        6.9895337448  MEMB      35              0.0000000000
      5306        63  DOPC      C311          -20.8733992540      -16.4030541282        7.3006733079  MEMB      35              0.0000000000
      5307        63  DOPC      H11X          -20.9856533942      -16.7912419310        6.2657664737  MEMB      35              0.0000000000
      5308        63  DOPC      H11Y          -20.4898671489      -17.2647007538        7.8878607419  MEMB      35              0.0000000000
      5309        63  DOPC      C312          -19.8340454359      -15.2722018525        7.3274527695  MEMB      35              0.0000000000
      5310        63  DOPC      H12X          -18.8671810110      -15.5672085827        6.8665122831  MEMB      35              0.0000000000
      5311        63  DOPC      H12Y          -19.5695715798      -15.0883772245        8.3907415951  MEMB      35              0.0000000000
      5312        63  DOPC      C313          -20.2392860838      -13.9539133678        6.6630576837  MEMB      35              0.0000000000
      5313        63  DOPC      H13X          -21.0649254182      -13.4505979906        7.2101540419  MEMB      35              0.0000000000
      5314        63  DOPC      H13Y          -19.4372103499      -13.1895459708        6.7451469940  MEMB      35              0.0000000000
      5315        63  DOPC      C314          -20.6535266949      -13.9805697149        5.1749193788  MEMB      35              0.0000000000
      5316        63  DOPC      H14X          -21.6733082198      -14.3977841195        5.3173929504  MEMB      35              0.0000000000
      5317        63  DOPC      H14Y          -20.6914410730      -12.9318404904        4.8101589558  MEMB      35              0.0000000000
      5318        63  DOPC      C315          -19.8612434665      -14.8329885296        4.2605854528  MEMB      35              0.0000000000
      5319        63  DOPC      H15X          -19.9164773698      -15.8883200883        4.6034344112  MEMB      35              0.0000000000
      5320        63  DOPC      H15Y          -18.8370704070      -14.4521389211        4.0597270128  MEMB      35              0.0000000000
      5321        63  DOPC      C316          -20.7038821515      -14.9253210355        2.9933644965  MEMB      35              0.0000000000
      5322        63  DOPC      H16X          -21.7583813035      -15.2171904307        3.1861459304  MEMB      35              0.0000000000
      5323        63  DOPC      H16Y          -20.7753418549      -13.9210671762        2.5235894573  MEMB      35              0.0000000000
      5324        63  DOPC      C317          -20.1353903714      -15.8070330453        1.7811536068  MEMB      35              0.0000000000
      5325        63  DOPC      H17X          -20.7333306211      -15.7040514285        0.8504637792  MEMB      35              0.0000000000
      5326        63  DOPC      H17Y          -19.1240529890      -15.5036893817        1.4354650757  MEMB      35              0.0000000000
      5327        63  DOPC      C318          -20.2084176502      -17.3035506253        1.8863360304  MEMB      35              0.0000000000
      5328        63  DOPC      H18X          -19.6869739436      -17.6169187575        2.8159701340  MEMB      35              0.0000000000
      5329        63  DOPC      H18Y          -21.2904134430      -17.5513881969        1.9330551352  MEMB      35              0.0000000000
      5330        63  DOPC      H18Z          -19.7910817806      -17.8977998988        1.0454914281  MEMB      35              0.0000000000
      5331        64  DOPC      N              19.6906504437      -22.1695754973       19.6518453074  MEMB      36              0.0000000000
      5332        64  DOPC      C12            19.1177797899      -22.5221064648       18.2631850356  MEMB      36              0.0000000000
      5333        64  DOPC      H12A           19.3895274132      -23.5351839493       18.0058382292  MEMB      36              0.0000000000
      5334        64  DOPC      H12B           19.5918590264      -21.8091580244       17.6048893552  MEMB      36              0.0000000000
      5335        64  DOPC      C13            19.6454182363      -20.6672170850       19.8178814365  MEMB      36              0.0000000000
      5336        64  DOPC      H13A           20.1554155887      -20.4027670019       20.7324134478  MEMB      36              0.0000000000
      5337        64  DOPC      H13B           20.2875683288      -20.3135453852       19.0248117747  MEMB      36              0.0000000000
      5338        64  DOPC      H13C           18.6422902526      -20.2678658233       19.8434322766  MEMB      36              0.0000000000
      5339        64  DOPC      C14            21.1692252066      -22.5137139038       19.5706660776  MEMB      36              0.0000000000
      5340        64  DOPC      H14A           21.2068050882      -23.5287464712       19.2036562571  MEMB      36              0.0000000000
      5341        64  DOPC      H14B           21.7437459085      -21.9183139314       18.8765299859  MEMB      36              0.0000000000
      5342        64  DOPC      H14C           21.7038497339      -22.5861956066       20.5062531501  MEMB      36              0.0000000000
      5343        64  DOPC      C15            19.1412834553      -22.9319380560       20.7956885696  MEMB      36              0.0000000000
      5344        64  DOPC      H15A           19.5775597763      -22.6156220265       21.7316410658  MEMB      36              0.0000000000
      5345        64  DOPC      H15B           19.3361219162      -23.9802599177       20.6240510443  MEMB      36              0.0000000000
      5346        64  DOPC      H15C           18.0676797132      -22.8509257268       20.8806122732  MEMB      36              0.0000000000
      5347        64  DOPC      C11            17.5733425918      -22.5591536389       18.0940627611  MEMB      36              0.0000000000
      5348        64  DOPC      H11A           17.1969399542      -21.5575691112       18.3931788599  MEMB      36              0.0000000000
      5349        64  DOPC      H11B           17.4159684493      -22.6545372659       16.9984093623  MEMB      36              0.0000000000
      5350        64  DOPC      P              15.3569349866      -23.8471674759       18.6290378425  MEMB      36              0.0000000000
      5351        64  DOPC      O13            14.7550854246      -22.5844424475       18.0288258515  MEMB      36              0.0000000000
      5352        64  DOPC      O14            14.6897017413      -24.3597050944       19.8401304343  MEMB      36              0.0000000000
      5353        64  DOPC      O12            16.8813555149      -23.6120764519       18.8348285097  MEMB      36              0.0000000000
      5354        64  DOPC      O11            15.3922358051      -24.9245848906       17.4738481744  MEMB      36              0.0000000000
      5355        64  DOPC      C1             14.1595671308      -25.4667441594       16.9443575329  MEMB      36              0.0000000000
      5356        64  DOPC      HA             13.2197640808      -25.1161611741       17.4220425719  MEMB      36              0.0000000000
      5357        64  DOPC      HB             14.1058234769      -26.5696848623       17.0666463583  MEMB      36              0.0000000000
      5358        64  DOPC      C2             14.1372738186      -25.1194313002       15.3947932373  MEMB      36              0.0000000000
      5359        64  DOPC      HS             13.2542984531      -25.6605682423       14.9924918297  MEMB      36              0.0000000000
      5360        64  DOPC      O21            15.3108248457      -25.5173106606       14.7337808249  MEMB      36              0.0000000000
      5361        64  DOPC      C21            15.5786693820      -26.7487205043       14.3395290215  MEMB      36              0.0000000000
      5362        64  DOPC      O22            14.8594116917      -27.7193211282       14.6126153152  MEMB      36              0.0000000000
      5363        64  DOPC      C22            16.8427258197      -26.7629009051       13.4370237484  MEMB      36              0.0000000000
      5364        64  DOPC      H2R            17.4218070900      -27.6730527013       13.7027488558  MEMB      36              0.0000000000
      5365        64  DOPC      H2S            17.5008308895      -25.8967084301       13.6626993855  MEMB      36              0.0000000000
      5366        64  DOPC      C3             13.9815523798      -23.6159248004       15.1765785897  MEMB      36              0.0000000000
      5367        64  DOPC      HX             14.8065669417      -23.0177739046       15.6191701952  MEMB      36              0.0000000000
      5368        64  DOPC      HY             13.0084022261      -23.2383977582       15.5570689059  MEMB      36              0.0000000000
      5369        64  DOPC      O31            13.8419805817      -23.4904460573       13.7380132603  MEMB      36              0.0000000000
      5370        64  DOPC      C31            13.9710080224      -22.2517547851       13.3415922629  MEMB      36              0.0000000000
      5371        64  DOPC      O32            13.9197542587      -21.2034493738       13.9854422021  MEMB      36              0.0000000000
      5372        64  DOPC      C32            13.9884587884      -22.3515881144       11.8254996578  MEMB      36              0.0000000000
      5373        64  DOPC      H2X            13.0339947607      -22.8051558049       11.4825775773  MEMB      36              0.0000000000
      5374        64  DOPC      H2Y            14.0584442156      -21.2957243499       11.4870109298  MEMB      36              0.0000000000
      5375        64  DOPC      C23            16.4917783193      -26.9629464926       11.9316447792  MEMB      36              0.0000000000
      5376        64  DOPC      H3R            15.6593006751      -26.3441286034       11.5336924015  MEMB      36              0.0000000000
      5377        64  DOPC      H3S            16.0158660226      -27.9396976363       11.6997272905  MEMB      36              0.0000000000
      5378        64  DOPC      C24            17.7578048622      -26.7194034702       11.1567318828  MEMB      36              0.0000000000
      5379        64  DOPC      H4R            18.6263715657      -27.2966893842       11.5396864405  MEMB      36              0.0000000000
      5380        64  DOPC      H4S            18.1194200218      -25.6957567374       11.3927468714  MEMB      36              0.0000000000
      5381        64  DOPC      C25            17.4745909771      -26.7955781893        9.7315007460  MEMB      36              0.0000000000
      5382        64  DOPC      H5R            18.3670963932      -26.3340506516        9.2574253191  MEMB      36              0.0000000000
      5383        64  DOPC      H5S            16.5685054933      -26.1872539539        9.5234830939  MEMB      36              0.0000000000
      5384        64  DOPC      C26            17.2840795847      -28.2877568157        9.1373219420  MEMB      36              0.0000000000
      5385        64  DOPC      H6R            16.2224120493      -28.6048688176        9.0559403280  MEMB      36              0.0000000000
      5386        64  DOPC      H6S            17.7894464256      -28.9717775637        9.8521935759  MEMB      36              0.0000000000
      5387        64  DOPC      C27            17.8968569903      -28.4673730671        7.7077365380  MEMB      36              0.0000000000
      5388        64  DOPC      H7R            17.9493915250      -29.5657288379        7.5490667685  MEMB      36              0.0000000000
      5389        64  DOPC      H7S            18.9291081116      -28.0565639747        7.7039844635  MEMB      36              0.0000000000
      5390        64  DOPC      C28            17.3272388213      -27.6069381985        6.5752217602  MEMB      36              0.0000000000
      5391        64  DOPC      H8R            18.1870836082      -27.5243081884        5.8765369923  MEMB      36              0.0000000000
      5392        64  DOPC      H8S            17.0417085350      -26.6000000020        6.9478726146  MEMB      36              0.0000000000
      5393        64  DOPC      C29            16.1525287812      -28.3336146553        5.8294390364  MEMB      36              0.0000000000
      5394        64  DOPC      H9R            15.4568288944      -28.8398945962        6.5147724758  MEMB      36              0.0000000000
      5395        64  DOPC      C210           15.9126490943      -28.3293751854        4.4932682619  MEMB      36              0.0000000000
      5396        64  DOPC      H10R           14.9925729997      -28.8894594164        4.2701869368  MEMB      36              0.0000000000
      5397        64  DOPC      C211           16.7364639060      -27.5975567347        3.4172684945  MEMB      36              0.0000000000
      5398        64  DOPC      H11R           17.0790480364      -28.2633769538        2.5965124685  MEMB      36              0.0000000000
      5399        64  DOPC      H11S           17.6807090979      -27.0899233707        3.7088690687  MEMB      36              0.0000000000
      5400        64  DOPC      C212           15.9069107246      -26.4205933620        2.6744476191  MEMB      36              0.0000000000
      5401        64  DOPC      H12R           15.1743102799      -26.8771003861        1.9750046648  MEMB      36              0.0000000000
      5402        64  DOPC      H12S           16.5374163345      -25.8335213606        1.9729281032  MEMB      36              0.0000000000
      5403        64  DOPC      C213           15.2690865183      -25.4851767447        3.7151643919  MEMB      36              0.0000000000
      5404        64  DOPC      H13R           16.0449525416      -25.2680843748        4.4801644130  MEMB      36              0.0000000000
      5405        64  DOPC      H13S           14.3531473634      -25.8863136656        4.1993813757  MEMB      36              0.0000000000
      5406        64  DOPC      C214           14.8425323986      -24.1483362508        3.1184043710  MEMB      36              0.0000000000
      5407        64  DOPC      H14R           14.3583825381      -24.2280696578        2.1216279243  MEMB      36              0.0000000000
      5408        64  DOPC      H14S           15.6752965739      -23.4388992588        2.9246931972  MEMB      36              0.0000000000
      5409        64  DOPC      C215           14.0128052150      -23.3347257964        4.1385804698  MEMB      36              0.0000000000
      5410        64  DOPC      H15R           14.0408262426      -22.2705110136        3.8208031505  MEMB      36              0.0000000000
      5411        64  DOPC      H15S           14.5366048628      -23.3796916989        5.1173206421  MEMB      36              0.0000000000
      5412        64  DOPC      C216           12.5548189781      -23.8297222401        4.2337096916  MEMB      36              0.0000000000
      5413        64  DOPC      H16R           12.0765870315      -23.1119110606        4.9339685769  MEMB      36              0.0000000000
      5414        64  DOPC      H16S           12.4587681415      -24.8883192761        4.5569241149  MEMB      36              0.0000000000
      5415        64  DOPC      C217           11.7317365103      -23.6018956915        3.0079988516  MEMB      36              0.0000000000
      5416        64  DOPC      H17R           10.7449825640      -24.1084862061        3.0712725832  MEMB      36              0.0000000000
      5417        64  DOPC      H17S           12.1621755619      -24.0292798971        2.0772011181  MEMB      36              0.0000000000
      5418        64  DOPC      C218           11.6276691087      -22.1222417919        2.5821001146  MEMB      36              0.0000000000
      5419        64  DOPC      H18R           12.6062546378      -21.8232338231        2.1493349012  MEMB      36              0.0000000000
      5420        64  DOPC      H18S           11.4439350255      -21.5498914342        3.5164332669  MEMB      36              0.0000000000
      5421        64  DOPC      H18T           10.8215195423      -21.8755251073        1.8585150367  MEMB      36              0.0000000000
      5422        64  DOPC      C33            15.1981426418      -23.1228904461       11.2540042720  MEMB      36              0.0000000000
      5423        64  DOPC      H3X            15.1125394788      -24.2253299199       11.3618016833  MEMB      36              0.0000000000
      5424        64  DOPC      H3Y            16.0612554786      -22.8202445540       11.8846884436  MEMB      36              0.0000000000
      5425        64  DOPC      C34            15.4633291043      -22.7446995269        9.7942379882  MEMB      36              0.0000000000
      5426        64  DOPC      H4X            15.2716877900      -21.6585395547        9.6606303158  MEMB      36              0.0000000000
      5427        64  DOPC      H4Y            14.7448143044      -23.3480526559        9.1992394283  MEMB      36              0.0000000000
      5428        64  DOPC      C35            16.9178751216      -22.8475516561        9.3910463061  MEMB      36              0.0000000000
      5429        64  DOPC      H5X            17.0777386942      -22.7064908256        8.3006949568  MEMB      36              0.0000000000
      5430        64  DOPC      H5Y            17.1795394623      -23.8733679626        9.7280246357  MEMB      36              0.0000000000
      5431        64  DOPC      C36            17.9896810259      -21.9731423401        9.9643654355  MEMB      36              0.0000000000
      5432        64  DOPC      H6X            17.9787158562      -20.9361513040        9.5658055774  MEMB      36              0.0000000000
      5433        64  DOPC      H6Y            17.7953091296      -21.9887501218       11.0581191592  MEMB      36              0.0000000000
      5434        64  DOPC      C37            19.4524526397      -22.5828807780        9.6533899845  MEMB      36              0.0000000000
      5435        64  DOPC      H7X            20.1322182904      -22.0645663360       10.3630309530  MEMB      36              0.0000000000
      5436        64  DOPC      H7Y            19.3520795066      -23.6641356703        9.8881968222  MEMB      36              0.0000000000
      5437        64  DOPC      C38            19.9588122904      -22.2524755246        8.2079924314  MEMB      36              0.0000000000
      5438        64  DOPC      H8X            21.0290149498      -22.5497952838        8.2322468558  MEMB      36              0.0000000000
      5439        64  DOPC      H8Y            19.8735067773      -21.1531061973        8.0722320517  MEMB      36              0.0000000000
      5440        64  DOPC      C39            19.2630811126      -22.8849795906        6.9888079798  MEMB      36              0.0000000000
      5441        64  DOPC      H9X            18.9926259599      -23.9511489044        6.9770950972  MEMB      36              0.0000000000
      5442        64  DOPC      C310           18.8314976720      -22.3207606861        5.8457394512  MEMB      36              0.0000000000
      5443        64  DOPC      H10X           18.2419576256      -22.7766697747        5.0366730197  MEMB      36              0.0000000000
      5444        64  DOPC      C311           19.0352083661      -20.8295146128        5.6688068129  MEMB      36              0.0000000000
      5445        64  DOPC      H11X           19.2360258124      -20.6358986765        4.5933966862  MEMB      36              0.0000000000
      5446        64  DOPC      H11Y           19.9327986127      -20.4123316628        6.1733961056  MEMB      36              0.0000000000
      5447        64  DOPC      C312           17.9032017633      -19.9677239565        6.1579372312  MEMB      36              0.0000000000
      5448        64  DOPC      H12X           18.1002853244      -18.8779505718        6.0692099171  MEMB      36              0.0000000000
      5449        64  DOPC      H12Y           17.7873437384      -20.0827457172        7.2568761032  MEMB      36              0.0000000000
      5450        64  DOPC      C313           16.4684684455      -20.1369380007        5.5408231157  MEMB      36              0.0000000000
      5451        64  DOPC      H13X           16.0722981567      -21.1748721098        5.5329072774  MEMB      36              0.0000000000
      5452        64  DOPC      H13Y           15.7286643134      -19.7009368849        6.2457437064  MEMB      36              0.0000000000
      5453        64  DOPC      C314           16.2460995254      -19.4664391333        4.1986758366  MEMB      36              0.0000000000
      5454        64  DOPC      H14X           15.1876229502      -19.5883842168        3.8839102459  MEMB      36              0.0000000000
      5455        64  DOPC      H14Y           16.4773604178      -18.3798346897        4.1872452512  MEMB      36              0.0000000000
      5456        64  DOPC      C315           16.8036465933      -20.3618445108        3.0162416270  MEMB      36              0.0000000000
      5457        64  DOPC      H15X           16.6964281459      -21.3975608730        3.4036909977  MEMB      36              0.0000000000
      5458        64  DOPC      H15Y           17.8395056099      -20.2114970845        2.6438004689  MEMB      36              0.0000000000
      5459        64  DOPC      C316           15.9254962050      -20.3568004571        1.7533379380  MEMB      36              0.0000000000
      5460        64  DOPC      H16X           15.1101442126      -21.1007686048        1.8799629759  MEMB      36              0.0000000000
      5461        64  DOPC      H16Y           15.6663185893      -19.3134676263        1.4729715029  MEMB      36              0.0000000000
      5462        64  DOPC      C317           16.7470209203      -20.8811779872        0.5998248723  MEMB      36              0.0000000000
      5463        64  DOPC      H17X           17.5337209414      -20.1468841084        0.3237160210  MEMB      36              0.0000000000
      5464        64  DOPC      H17Y           17.2080854150      -21.8353768664        0.9333590583  MEMB      36              0.0000000000
      5465        64  DOPC      C318           15.8894269400      -20.8916752271       -0.6275200271  MEMB      36              0.0000000000
      5466        64  DOPC      H18X           16.5074546395      -21.2894875215       -1.4606528171  MEMB      36              0.0000000000
      5467        64  DOPC      H18Y           14.9637152720      -21.4867691297       -0.4750645674  MEMB      36              0.0000000000
      5468        64  DOPC      H18Z           15.6957475699      -19.8077505463       -0.7755638887  MEMB      36              0.0000000000
      5469        65  DOPC      N              23.8986987782      -10.7811735697       17.2219921202  MEMB      37              0.0000000000
      5470        65  DOPC      C12            23.5990375343      -10.0089810117       18.4866428252  MEMB      37              0.0000000000
      5471        65  DOPC      H12A           23.1855464562      -10.7367915949       19.1690773583  MEMB      37              0.0000000000
      5472        65  DOPC      H12B           22.8789897338       -9.2205183856       18.3246001146  MEMB      37              0.0000000000
      5473        65  DOPC      C13            24.6480850320       -9.8634196399       16.2721008814  MEMB      37              0.0000000000
      5474        65  DOPC      H13A           23.9293373433       -9.1851400756       15.8365110533  MEMB      37              0.0000000000
      5475        65  DOPC      H13B           25.4337928227       -9.3268208810       16.7831048698  MEMB      37              0.0000000000
      5476        65  DOPC      H13C           25.1687585695      -10.3497618351       15.4604541500  MEMB      37              0.0000000000
      5477        65  DOPC      C14            22.6254346622      -11.3339329530       16.5618501198  MEMB      37              0.0000000000
      5478        65  DOPC      H14A           21.9884771188      -10.4699247448       16.4427911968  MEMB      37              0.0000000000
      5479        65  DOPC      H14B           22.8997305479      -11.6304472929       15.5602311196  MEMB      37              0.0000000000
      5480        65  DOPC      H14C           22.0825455749      -12.0806840959       17.1222377617  MEMB      37              0.0000000000
      5481        65  DOPC      C15            24.7850085187      -11.8353513316       17.6853867814  MEMB      37              0.0000000000
      5482        65  DOPC      H15A           24.4616603872      -12.4158947316       18.5367476076  MEMB      37              0.0000000000
      5483        65  DOPC      H15B           25.7417164286      -11.5129092939       18.0689766397  MEMB      37              0.0000000000
      5484        65  DOPC      H15C           24.9193155296      -12.6051881002       16.9399251631  MEMB      37              0.0000000000
      5485        65  DOPC      C11            24.7702728011       -9.3910909687       19.3148292291  MEMB      37              0.0000000000
      5486        65  DOPC      H11A           25.2390397791       -8.5553067457       18.7526520400  MEMB      37              0.0000000000
      5487        65  DOPC      H11B           24.1583910506       -9.0325463847       20.1700294252  MEMB      37              0.0000000000
      5488        65  DOPC      P              26.8677529156       -9.9110669488       20.8231833180  MEMB      37              0.0000000000
      5489        65  DOPC      O13            27.4141729365      -11.1674630617       21.3774458199  MEMB      37              0.0000000000
      5490        65  DOPC      O14            26.3395171411       -8.7757551651       21.6640304712  MEMB      37              0.0000000000
      5491        65  DOPC      O12            25.6662235706      -10.3138528782       19.8866407415  MEMB      37              0.0000000000
      5492        65  DOPC      O11            27.8735705165       -9.3125748164       19.7058976670  MEMB      37              0.0000000000
      5493        65  DOPC      C1             28.4111927104      -10.3936447978       18.8782560231  MEMB      37              0.0000000000
      5494        65  DOPC      HA             27.6317190785      -11.0298998659       18.4071704147  MEMB      37              0.0000000000
      5495        65  DOPC      HB             29.1060395019      -11.0431638285       19.4523936412  MEMB      37              0.0000000000
      5496        65  DOPC      C2             29.2646442963       -9.7947868275       17.7754928680  MEMB      37              0.0000000000
      5497        65  DOPC      HS             30.1788226610       -9.3393290273       18.2127074821  MEMB      37              0.0000000000
      5498        65  DOPC      O21            28.6241327127       -8.8144815496       16.9451337652  MEMB      37              0.0000000000
      5499        65  DOPC      C21            29.2972448306       -7.9526120818       16.1799951418  MEMB      37              0.0000000000
      5500        65  DOPC      O22            30.4857998933       -7.9595311040       16.0008918057  MEMB      37              0.0000000000
      5501        65  DOPC      C22            28.3294185313       -6.9867989452       15.5597608030  MEMB      37              0.0000000000
      5502        65  DOPC      H2R            28.7751985008       -6.0112526803       15.2700884398  MEMB      37              0.0000000000
      5503        65  DOPC      H2S            27.5886272914       -6.6200642166       16.3020917486  MEMB      37              0.0000000000
      5504        65  DOPC      C3             29.7946525452      -10.8450761439       16.8425769138  MEMB      37              0.0000000000
      5505        65  DOPC      HX             30.3286230651      -11.5482033489       17.5169718719  MEMB      37              0.0000000000
      5506        65  DOPC      HY             30.5030545931      -10.3603314899       16.1372327764  MEMB      37              0.0000000000
      5507        65  DOPC      O31            28.7837353380      -11.5070634993       15.9665937502  MEMB      37              0.0000000000
      5508        65  DOPC      C31            29.4304443245      -12.5610527232       15.4030795554  MEMB      37              0.0000000000
      5509        65  DOPC      O32            30.6769738579      -12.7017361182       15.2831004891  MEMB      37              0.0000000000
      5510        65  DOPC      C32            28.3524143199      -13.4733975544       14.8248090688  MEMB      37              0.0000000000
      5511        65  DOPC      H2X            27.4775117270      -13.5502086810       15.5052255309  MEMB      37              0.0000000000
      5512        65  DOPC      H2Y            28.0262150605      -13.1139795898       13.8254424556  MEMB      37              0.0000000000
      5513        65  DOPC      C23            27.5477030819       -7.6222045675       14.4296215217  MEMB      37              0.0000000000
      5514        65  DOPC      H3R            26.6542953517       -6.9732399159       14.3071942697  MEMB      37              0.0000000000
      5515        65  DOPC      H3S            27.2994319817       -8.6650835831       14.7213167006  MEMB      37              0.0000000000
      5516        65  DOPC      C24            28.1907076087       -7.6471758680       12.9635691861  MEMB      37              0.0000000000
      5517        65  DOPC      H4R            28.9633565826       -8.4414414821       13.0440477716  MEMB      37              0.0000000000
      5518        65  DOPC      H4S            28.6642224054       -6.6480650181       12.8545618375  MEMB      37              0.0000000000
      5519        65  DOPC      C25            27.3456809825       -7.9248765340       11.7691800312  MEMB      37              0.0000000000
      5520        65  DOPC      H5R            28.0259499859       -7.7692641567       10.9046918052  MEMB      37              0.0000000000
      5521        65  DOPC      H5S            26.5439886029       -7.1558969188       11.7859320921  MEMB      37              0.0000000000
      5522        65  DOPC      C26            26.6493188435       -9.3062318752       11.9131547175  MEMB      37              0.0000000000
      5523        65  DOPC      H6R            26.2231543502       -9.6355371069       10.9414227044  MEMB      37              0.0000000000
      5524        65  DOPC      H6S            25.8597879475       -9.0975102102       12.6664126011  MEMB      37              0.0000000000
      5525        65  DOPC      C27            27.4843699924      -10.5541580751       12.3123500663  MEMB      37              0.0000000000
      5526        65  DOPC      H7R            26.8098915528      -11.3786526027       12.6279582512  MEMB      37              0.0000000000
      5527        65  DOPC      H7S            27.9484502649      -10.2769611455       13.2829747051  MEMB      37              0.0000000000
      5528        65  DOPC      C28            28.5695819138      -10.9348238533       11.3017564926  MEMB      37              0.0000000000
      5529        65  DOPC      H8R            29.1630039376      -11.6904832776       11.8595646713  MEMB      37              0.0000000000
      5530        65  DOPC      H8S            29.1950386839      -10.0611154418       11.0193413205  MEMB      37              0.0000000000
      5531        65  DOPC      C29            27.9431872418      -11.6380627794       10.1189692113  MEMB      37              0.0000000000
      5532        65  DOPC      H9R            27.5945240610      -12.6144817459       10.4864476507  MEMB      37              0.0000000000
      5533        65  DOPC      C210           27.6187427638      -11.2007175569        8.9137930413  MEMB      37              0.0000000000
      5534        65  DOPC      H10R           27.4584580940      -11.9605244175        8.1346892650  MEMB      37              0.0000000000
      5535        65  DOPC      C211           27.8116162504       -9.7817447095        8.4721429076  MEMB      37              0.0000000000
      5536        65  DOPC      H11R           28.4681150320       -9.2040932006        9.1574523785  MEMB      37              0.0000000000
      5537        65  DOPC      H11S           26.8001040321       -9.3257088927        8.4156138974  MEMB      37              0.0000000000
      5538        65  DOPC      C212           28.3100767525       -9.7645125704        7.0114066403  MEMB      37              0.0000000000
      5539        65  DOPC      H12R           27.4740909232       -9.9845253711        6.3135220253  MEMB      37              0.0000000000
      5540        65  DOPC      H12S           28.9294387463      -10.6558401057        6.7742431005  MEMB      37              0.0000000000
      5541        65  DOPC      C213           29.1114177901       -8.5023850821        6.5894282110  MEMB      37              0.0000000000
      5542        65  DOPC      H13R           29.7681323070       -8.1631120241        7.4188503336  MEMB      37              0.0000000000
      5543        65  DOPC      H13S           28.4509548825       -7.6983682042        6.1999839589  MEMB      37              0.0000000000
      5544        65  DOPC      C214           30.1039400215       -8.8908072640        5.4935919575  MEMB      37              0.0000000000
      5545        65  DOPC      H14R           30.6893480241       -9.7194640546        5.9463019582  MEMB      37              0.0000000000
      5546        65  DOPC      H14S           30.8498900373       -8.0682162585        5.4586112530  MEMB      37              0.0000000000
      5547        65  DOPC      C215           29.6466650831       -9.1774358400        4.1094328888  MEMB      37              0.0000000000
      5548        65  DOPC      H15R           29.0665470696      -10.1247392001        4.0894154201  MEMB      37              0.0000000000
      5549        65  DOPC      H15S           30.4700560529       -9.3838535542        3.3926760182  MEMB      37              0.0000000000
      5550        65  DOPC      C216           28.6877709185       -8.1413516265        3.4750633891  MEMB      37              0.0000000000
      5551        65  DOPC      H16R           29.1367042195       -7.1445621572        3.2770970274  MEMB      37              0.0000000000
      5552        65  DOPC      H16S           27.7648206650       -8.0397959941        4.0851213640  MEMB      37              0.0000000000
      5553        65  DOPC      C217           28.2027779499       -8.7193977586        2.0862696146  MEMB      37              0.0000000000
      5554        65  DOPC      H17R           27.4043941160       -8.0215889793        1.7546556597  MEMB      37              0.0000000000
      5555        65  DOPC      H17S           27.7503834733       -9.7024696835        2.3377248568  MEMB      37              0.0000000000
      5556        65  DOPC      C218           29.2751988750       -8.9745126655        1.0116074878  MEMB      37              0.0000000000
      5557        65  DOPC      H18R           30.2331653739       -8.6184912562        1.4473490624  MEMB      37              0.0000000000
      5558        65  DOPC      H18S           29.0867081203       -8.4041353397        0.0770164389  MEMB      37              0.0000000000
      5559        65  DOPC      H18T           29.3461883047      -10.0553873520        0.7646442535  MEMB      37              0.0000000000
      5560        65  DOPC      C33            28.8976711292      -14.9413987776       14.7649301307  MEMB      37              0.0000000000
      5561        65  DOPC      H3X            29.1516764997      -15.2909528187       15.7884601807  MEMB      37              0.0000000000
      5562        65  DOPC      H3Y            29.8782486228      -14.8720228448       14.2472660675  MEMB      37              0.0000000000
      5563        65  DOPC      C34            28.0031890474      -15.9241890721       14.1581217031  MEMB      37              0.0000000000
      5564        65  DOPC      H4X            27.0866396541      -15.8764243525       14.7842019235  MEMB      37              0.0000000000
      5565        65  DOPC      H4Y            28.3650267859      -16.9740468718       14.1926617052  MEMB      37              0.0000000000
      5566        65  DOPC      C35            27.6294736563      -15.7099574162       12.6532253765  MEMB      37              0.0000000000
      5567        65  DOPC      H5X            27.1149607487      -14.7547338673       12.4141753132  MEMB      37              0.0000000000
      5568        65  DOPC      H5Y            26.8789397636      -16.4975152647       12.4278981916  MEMB      37              0.0000000000
      5569        65  DOPC      C36            28.8475392121      -15.8172642311       11.7372849365  MEMB      37              0.0000000000
      5570        65  DOPC      H6X            29.6435741355      -15.1544603801       12.1389573312  MEMB      37              0.0000000000
      5571        65  DOPC      H6Y            29.2602096885      -16.8426904160       11.8492002578  MEMB      37              0.0000000000
      5572        65  DOPC      C37            28.6743868837      -15.6357263049       10.2049106843  MEMB      37              0.0000000000
      5573        65  DOPC      H7X            27.9342376852      -16.3965655648        9.8768501850  MEMB      37              0.0000000000
      5574        65  DOPC      H7Y            28.1346385590      -14.6646780345       10.2125389431  MEMB      37              0.0000000000
      5575        65  DOPC      C38            30.0340177287      -15.7318306933        9.4649135056  MEMB      37              0.0000000000
      5576        65  DOPC      H8X            30.6731096772      -16.2324482034       10.2233753840  MEMB      37              0.0000000000
      5577        65  DOPC      H8Y            30.5119563461      -14.7288875223        9.4656731780  MEMB      37              0.0000000000
      5578        65  DOPC      C39            30.0923658845      -16.3609268429        8.1161148611  MEMB      37              0.0000000000
      5579        65  DOPC      H9X            31.0503947072      -16.8836987179        7.9786729197  MEMB      37              0.0000000000
      5580        65  DOPC      C310           29.2701586876      -16.1642503845        7.0529598568  MEMB      37              0.0000000000
      5581        65  DOPC      H10X           29.5618108736      -16.6212025868        6.0958114167  MEMB      37              0.0000000000
      5582        65  DOPC      C311           28.0919929957      -15.2551150052        7.0449286050  MEMB      37              0.0000000000
      5583        65  DOPC      H11X           28.1555925202      -14.4765048481        7.8348917768  MEMB      37              0.0000000000
      5584        65  DOPC      H11Y           27.1185511535      -15.7820841680        7.1399831634  MEMB      37              0.0000000000
      5585        65  DOPC      C312           27.9558853447      -14.6639015552        5.6307736841  MEMB      37              0.0000000000
      5586        65  DOPC      H12X           27.4939309511      -15.3712181731        4.9092322547  MEMB      37              0.0000000000
      5587        65  DOPC      H12Y           28.9454191886      -14.3191478767        5.2616015570  MEMB      37              0.0000000000
      5588        65  DOPC      C313           26.9145863507      -13.5479299529        5.7078250750  MEMB      37              0.0000000000
      5589        65  DOPC      H13X           27.3021325415      -12.7801075926        6.4110864731  MEMB      37              0.0000000000
      5590        65  DOPC      H13Y           26.9037859401      -13.0049647692        4.7386018659  MEMB      37              0.0000000000
      5591        65  DOPC      C314           25.4826352640      -13.8374236986        6.1447214358  MEMB      37              0.0000000000
      5592        65  DOPC      H14X           25.5852202156      -13.9668173273        7.2433814679  MEMB      37              0.0000000000
      5593        65  DOPC      H14Y           24.8572402054      -12.9326274942        5.9880509356  MEMB      37              0.0000000000
      5594        65  DOPC      C315           24.7846863491      -15.0535947284        5.5468179436  MEMB      37              0.0000000000
      5595        65  DOPC      H15X           23.7461169632      -15.1306507099        5.9338021252  MEMB      37              0.0000000000
      5596        65  DOPC      H15Y           25.2337408234      -15.9957138959        5.9277146091  MEMB      37              0.0000000000
      5597        65  DOPC      C316           24.7193511641      -15.1993120709        3.9801476025  MEMB      37              0.0000000000
      5598        65  DOPC      H16X           25.7637965866      -14.9488799078        3.6960024079  MEMB      37              0.0000000000
      5599        65  DOPC      H16Y           24.4423544702      -16.2334006675        3.6830718152  MEMB      37              0.0000000000
      5600        65  DOPC      C317           23.5180574265      -14.3802599059        3.3966393613  MEMB      37              0.0000000000
      5601        65  DOPC      H17X           23.0548573283      -14.8820072495        2.5202741929  MEMB      37              0.0000000000
      5602        65  DOPC      H17Y           22.7209933705      -14.2345437984        4.1567553861  MEMB      37              0.0000000000
      5603        65  DOPC      C318           23.8906337613      -12.9345732103        2.9727884655  MEMB      37              0.0000000000
      5604        65  DOPC      H18X           24.3599830229      -12.9206915081        1.9658920907  MEMB      37              0.0000000000
      5605        65  DOPC      H18Y           22.9772136946      -12.3109995632        2.8672369624  MEMB      37              0.0000000000
      5606        65  DOPC      H18Z           24.4791198134      -12.5416702418        3.8293114124  MEMB      37              0.0000000000
      5607        66  DOPC      N              21.1780786668       21.4110357390       18.4177801109  MEMB      38              0.0000000000
      5608        66  DOPC      C12            20.0245410503       22.3826912037       18.8097074726  MEMB      38              0.0000000000
      5609        66  DOPC      H12A           19.0709897928       21.9252856807       19.0286145517  MEMB      38              0.0000000000
      5610        66  DOPC      H12B           19.8466698014       23.0012249718       17.9424256375  MEMB      38              0.0000000000
      5611        66  DOPC      C13            21.6211956541       20.7611747453       19.6483957502  MEMB      38              0.0000000000
      5612        66  DOPC      H13A           22.5959681098       20.3022229044       19.5736846117  MEMB      38              0.0000000000
      5613        66  DOPC      H13B           21.8338471988       21.5101323175       20.3968888396  MEMB      38              0.0000000000
      5614        66  DOPC      H13C           20.8095624244       20.1591152445       20.0294155284  MEMB      38              0.0000000000
      5615        66  DOPC      C14            22.2782795420       22.1336010054       17.7689643218  MEMB      38              0.0000000000
      5616        66  DOPC      H14A           23.1446645963       21.4972410783       17.6649301977  MEMB      38              0.0000000000
      5617        66  DOPC      H14B           21.9519048213       22.5916501477       16.8469716957  MEMB      38              0.0000000000
      5618        66  DOPC      H14C           22.5189991196       22.9761582359       18.4002736326  MEMB      38              0.0000000000
      5619        66  DOPC      C15            20.6261173935       20.3721197576       17.3936126142  MEMB      38              0.0000000000
      5620        66  DOPC      H15A           20.1114490074       20.9226903599       16.6200567938  MEMB      38              0.0000000000
      5621        66  DOPC      H15B           19.9654609186       19.6935049394       17.9126646764  MEMB      38              0.0000000000
      5622        66  DOPC      H15C           21.4965067913       19.7844284773       17.1417374538  MEMB      38              0.0000000000
      5623        66  DOPC      C11            20.2409962697       23.2049637918       20.1925479440  MEMB      38              0.0000000000
      5624        66  DOPC      H11A           19.3331997304       23.8337056582       20.3146548043  MEMB      38              0.0000000000
      5625        66  DOPC      H11B           20.3794530926       22.5124137115       21.0501754127  MEMB      38              0.0000000000
      5626        66  DOPC      P              21.4548207625       25.3700296106       19.3792900016  MEMB      38              0.0000000000
      5627        66  DOPC      O13            22.8191828601       25.6641919176       18.8667324695  MEMB      38              0.0000000000
      5628        66  DOPC      O14            20.9122506817       26.3380996182       20.3036881530  MEMB      38              0.0000000000
      5629        66  DOPC      O12            21.4320089633       23.9737285481       20.0759642641  MEMB      38              0.0000000000
      5630        66  DOPC      O11            20.4692223575       25.0403915675       18.1433168980  MEMB      38              0.0000000000
      5631        66  DOPC      C1             19.6981021725       26.1445098583       17.6163610351  MEMB      38              0.0000000000
      5632        66  DOPC      HA             20.4107647676       26.8874278000       17.1986219786  MEMB      38              0.0000000000
      5633        66  DOPC      HB             19.1836320717       26.6954164977       18.4325370977  MEMB      38              0.0000000000
      5634        66  DOPC      C2             18.7608634177       25.5824564789       16.5013408620  MEMB      38              0.0000000000
      5635        66  DOPC      HS             17.9426983231       24.9373408525       16.8870257505  MEMB      38              0.0000000000
      5636        66  DOPC      O21            19.5304797779       24.7807242192       15.6484998418  MEMB      38              0.0000000000
      5637        66  DOPC      C21            18.9864219717       23.8569712915       14.7852996649  MEMB      38              0.0000000000
      5638        66  DOPC      O22            17.7875606703       23.7487454869       14.5758232660  MEMB      38              0.0000000000
      5639        66  DOPC      C22            20.1903872911       23.0929723385       14.1934303018  MEMB      38              0.0000000000
      5640        66  DOPC      H2R            20.7662013702       22.7167990481       15.0659283046  MEMB      38              0.0000000000
      5641        66  DOPC      H2S            20.8175038525       23.7890077531       13.5962865734  MEMB      38              0.0000000000
      5642        66  DOPC      C3             18.1026754988       26.6406984397       15.6269470723  MEMB      38              0.0000000000
      5643        66  DOPC      HX             17.3441800611       27.2284512798       16.1869048266  MEMB      38              0.0000000000
      5644        66  DOPC      HY             17.4919353471       26.1857706609       14.8180227997  MEMB      38              0.0000000000
      5645        66  DOPC      O31            19.1625354557       27.4234249881       15.0007564641  MEMB      38              0.0000000000
      5646        66  DOPC      C31            19.3729568632       28.7089411590       15.2951022837  MEMB      38              0.0000000000
      5647        66  DOPC      O32            18.6784887919       29.3153522648       16.0805022762  MEMB      38              0.0000000000
      5648        66  DOPC      C32            20.6294557690       29.3448222485       14.7543927005  MEMB      38              0.0000000000
      5649        66  DOPC      H2X            20.5704054525       29.2674734965       13.6476627558  MEMB      38              0.0000000000
      5650        66  DOPC      H2Y            20.6695404572       30.3659713329       15.1902465339  MEMB      38              0.0000000000
      5651        66  DOPC      C23            19.7941310791       21.8995533574       13.2251617893  MEMB      38              0.0000000000
      5652        66  DOPC      H3R            18.9150166485       21.3968337992       13.6820550194  MEMB      38              0.0000000000
      5653        66  DOPC      H3S            20.6286865771       21.1662219613       13.2331080709  MEMB      38              0.0000000000
      5654        66  DOPC      C24            19.4889529963       22.2934575808       11.7617306559  MEMB      38              0.0000000000
      5655        66  DOPC      H4R            19.1060697058       21.3120966771       11.4086693457  MEMB      38              0.0000000000
      5656        66  DOPC      H4S            20.4810740448       22.3448238076       11.2643596520  MEMB      38              0.0000000000
      5657        66  DOPC      C25            18.6859591557       23.5173644160       11.4773010825  MEMB      38              0.0000000000
      5658        66  DOPC      H5R            19.2784987452       24.3830007753       11.8432132244  MEMB      38              0.0000000000
      5659        66  DOPC      H5S            17.6916331619       23.3914641385       11.9566605953  MEMB      38              0.0000000000
      5660        66  DOPC      C26            18.3722410452       23.6860616692        9.9362351495  MEMB      38              0.0000000000
      5661        66  DOPC      H6R            17.6674690678       22.8506461671        9.7369911577  MEMB      38              0.0000000000
      5662        66  DOPC      H6S            19.2776561526       23.7014091470        9.2925664832  MEMB      38              0.0000000000
      5663        66  DOPC      C27            17.5253023136       24.9584380968        9.7507755814  MEMB      38              0.0000000000
      5664        66  DOPC      H7R            16.5433077957       24.7861055679       10.2409897508  MEMB      38              0.0000000000
      5665        66  DOPC      H7S            17.2372549237       25.0932571879        8.6862698821  MEMB      38              0.0000000000
      5666        66  DOPC      C28            18.1387094680       26.3256704535       10.1610495849  MEMB      38              0.0000000000
      5667        66  DOPC      H8R            18.0676452026       26.2905540348       11.2692178812  MEMB      38              0.0000000000
      5668        66  DOPC      H8S            17.3921203451       27.0989756899        9.8801148435  MEMB      38              0.0000000000
      5669        66  DOPC      C29            19.5500961348       26.3765034611        9.5943747055  MEMB      38              0.0000000000
      5670        66  DOPC      H9R            20.2759184863       25.6360155198        9.9616066254  MEMB      38              0.0000000000
      5671        66  DOPC      C210           20.0284790163       27.2399554227        8.7028481184  MEMB      38              0.0000000000
      5672        66  DOPC      H10R           21.0649748450       27.1227570694        8.3536477827  MEMB      38              0.0000000000
      5673        66  DOPC      C211           19.3845644294       28.3514583672        8.0118405676  MEMB      38              0.0000000000
      5674        66  DOPC      H11R           20.1872768657       29.0947015184        7.8180267644  MEMB      38              0.0000000000
      5675        66  DOPC      H11S           18.6060371325       28.7594304800        8.6913812135  MEMB      38              0.0000000000
      5676        66  DOPC      C212           18.7253849493       28.2101856224        6.6379447594  MEMB      38              0.0000000000
      5677        66  DOPC      H12R           18.1925479840       29.1406886993        6.3471358423  MEMB      38              0.0000000000
      5678        66  DOPC      H12S           17.9090130190       27.4646943155        6.7479478674  MEMB      38              0.0000000000
      5679        66  DOPC      C213           19.5750053722       27.7125076214        5.4635200225  MEMB      38              0.0000000000
      5680        66  DOPC      H13R           20.2317557139       26.8953901767        5.8313780573  MEMB      38              0.0000000000
      5681        66  DOPC      H13S           20.2564284867       28.5375171371        5.1646168937  MEMB      38              0.0000000000
      5682        66  DOPC      C214           18.8251549298       27.2123460732        4.2663222738  MEMB      38              0.0000000000
      5683        66  DOPC      H14R           18.1898509528       28.0147759140        3.8340997008  MEMB      38              0.0000000000
      5684        66  DOPC      H14S           18.1735465604       26.3282862976        4.4341498418  MEMB      38              0.0000000000
      5685        66  DOPC      C215           19.8853072490       26.9043832550        3.1954388605  MEMB      38              0.0000000000
      5686        66  DOPC      H15R           20.5326877801       26.0533878886        3.4971448687  MEMB      38              0.0000000000
      5687        66  DOPC      H15S           20.6018079923       27.7478379229        3.0978089734  MEMB      38              0.0000000000
      5688        66  DOPC      C216           19.0936437157       26.4203956010        1.8972903162  MEMB      38              0.0000000000
      5689        66  DOPC      H16R           18.3794044494       27.1399259700        1.4429125013  MEMB      38              0.0000000000
      5690        66  DOPC      H16S           18.4905275562       25.5376183317        2.1994074350  MEMB      38              0.0000000000
      5691        66  DOPC      C217           20.1471572902       26.0009798024        0.7909071710  MEMB      38              0.0000000000
      5692        66  DOPC      H17R           19.5723013696       25.4180830536        0.0398466370  MEMB      38              0.0000000000
      5693        66  DOPC      H17S           20.8662104858       25.2591835788        1.1995909946  MEMB      38              0.0000000000
      5694        66  DOPC      C218           20.8319320080       27.2338935460        0.2250247598  MEMB      38              0.0000000000
      5695        66  DOPC      H18R           20.0686161883       28.0041607049        0.4665994676  MEMB      38              0.0000000000
      5696        66  DOPC      H18S           21.2055952812       27.0787214118       -0.8096821922  MEMB      38              0.0000000000
      5697        66  DOPC      H18T           21.6387455667       27.3948723949        0.9716566970  MEMB      38              0.0000000000
      5698        66  DOPC      C33            21.8771508588       28.5897084122       15.0987422611  MEMB      38              0.0000000000
      5699        66  DOPC      H3X            21.7765959140       28.3037780617       16.1675984568  MEMB      38              0.0000000000
      5700        66  DOPC      H3Y            22.7756008635       29.2304654461       14.9701389422  MEMB      38              0.0000000000
      5701        66  DOPC      C34            22.1091294309       27.2712633930       14.2969488600  MEMB      38              0.0000000000
      5702        66  DOPC      H4X            21.3208096925       26.5435860226       14.5856679436  MEMB      38              0.0000000000
      5703        66  DOPC      H4Y            22.9930132763       26.7729934592       14.7494943060  MEMB      38              0.0000000000
      5704        66  DOPC      C35            22.3190694864       27.5175392305       12.8275604254  MEMB      38              0.0000000000
      5705        66  DOPC      H5X            22.6941206392       28.5514648772       12.6705403405  MEMB      38              0.0000000000
      5706        66  DOPC      H5Y            21.3451104797       27.3851406068       12.3096842976  MEMB      38              0.0000000000
      5707        66  DOPC      C36            23.3077231103       26.4997386898       12.2463636919  MEMB      38              0.0000000000
      5708        66  DOPC      H6X            24.3569659232       26.6286166687       12.5881249496  MEMB      38              0.0000000000
      5709        66  DOPC      H6Y            23.0517727558       25.4784020962       12.6008802496  MEMB      38              0.0000000000
      5710        66  DOPC      C37            23.3928832687       26.3911421592       10.7452204388  MEMB      38              0.0000000000
      5711        66  DOPC      H7X            22.4709017388       26.3277674915       10.1285728230  MEMB      38              0.0000000000
      5712        66  DOPC      H7Y            23.8243609105       27.3216615965       10.3182765003  MEMB      38              0.0000000000
      5713        66  DOPC      C38            24.2477684380       25.1632337339       10.2983607510  MEMB      38              0.0000000000
      5714        66  DOPC      H8X            25.1272781500       25.1437018839       10.9768900346  MEMB      38              0.0000000000
      5715        66  DOPC      H8Y            24.5180229979       25.4120811919        9.2498575144  MEMB      38              0.0000000000
      5716        66  DOPC      C39            23.5040895561       23.8228315500       10.3796995048  MEMB      38              0.0000000000
      5717        66  DOPC      H9X            23.3419798825       23.4916882244       11.4160702698  MEMB      38              0.0000000000
      5718        66  DOPC      C310           23.0171382427       23.0587174356        9.3881293030  MEMB      38              0.0000000000
      5719        66  DOPC      H10X           22.4735800766       22.1512025169        9.6897271424  MEMB      38              0.0000000000
      5720        66  DOPC      C311           23.1260281057       23.2969136716        7.8513903786  MEMB      38              0.0000000000
      5721        66  DOPC      H11X           22.8457902446       24.3532426199        7.6514989182  MEMB      38              0.0000000000
      5722        66  DOPC      H11Y           22.3534872581       22.6321000351        7.4092088665  MEMB      38              0.0000000000
      5723        66  DOPC      C312           24.4813846370       22.8882122898        7.2045810705  MEMB      38              0.0000000000
      5724        66  DOPC      H12X           24.6374878598       21.8208273563        7.4703679275  MEMB      38              0.0000000000
      5725        66  DOPC      H12Y           25.3770903104       23.4465464795        7.5514172277  MEMB      38              0.0000000000
      5726        66  DOPC      C313           24.4177824510       23.1390571405        5.6880907314  MEMB      38              0.0000000000
      5727        66  DOPC      H13X           24.4772451493       24.2288770120        5.4805384300  MEMB      38              0.0000000000
      5728        66  DOPC      H13Y           25.3319042829       22.7126036574        5.2224296214  MEMB      38              0.0000000000
      5729        66  DOPC      C314           23.2249258581       22.5208592029        4.9390225009  MEMB      38              0.0000000000
      5730        66  DOPC      H14X           23.2095857273       21.4564436360        5.2569931426  MEMB      38              0.0000000000
      5731        66  DOPC      H14Y           22.3542590616       23.1373971170        5.2490897250  MEMB      38              0.0000000000
      5732        66  DOPC      C315           23.3070441205       22.4992954066        3.3749343208  MEMB      38              0.0000000000
      5733        66  DOPC      H15X           22.4120108355       21.8669127277        3.1923735433  MEMB      38              0.0000000000
      5734        66  DOPC      H15Y           24.1662331425       21.8687434267        3.0610565931  MEMB      38              0.0000000000
      5735        66  DOPC      C316           23.3053611511       23.8438093619        2.6987048518  MEMB      38              0.0000000000
      5736        66  DOPC      H16X           22.3307299839       24.3707419561        2.7809089303  MEMB      38              0.0000000000
      5737        66  DOPC      H16Y           24.1687155141       24.4243446645        3.0884731951  MEMB      38              0.0000000000
      5738        66  DOPC      C317           23.6166235082       23.6258679490        1.2097690550  MEMB      38              0.0000000000
      5739        66  DOPC      H17X           24.5542643366       23.0310541851        1.1730619673  MEMB      38              0.0000000000
      5740        66  DOPC      H17Y           22.7860245166       23.0762193186        0.7175168461  MEMB      38              0.0000000000
      5741        66  DOPC      C318           23.8946599212       24.9517766091        0.4816353893  MEMB      38              0.0000000000
      5742        66  DOPC      H18X           23.5913801351       25.9023016456        0.9703528374  MEMB      38              0.0000000000
      5743        66  DOPC      H18Y           24.9942864698       25.1093219592        0.4636981394  MEMB      38              0.0000000000
      5744        66  DOPC      H18Z           23.5812274508       24.8342325604       -0.5777359937  MEMB      38              0.0000000000
      5745        67  DOPC      N             -28.9770506584       -1.7193821021       20.7826375516  MEMB      39              0.0000000000
      5746        67  DOPC      C12           -29.3108733262       -1.2201591440       19.4686787668  MEMB      39              0.0000000000
      5747        67  DOPC      H12A          -28.7716772603       -0.2916375944       19.3524231559  MEMB      39              0.0000000000
      5748        67  DOPC      H12B          -30.3814955098       -1.1221923495       19.3658660527  MEMB      39              0.0000000000
      5749        67  DOPC      C13           -27.5132042103       -1.3172348049       20.9221264525  MEMB      39              0.0000000000
      5750        67  DOPC      H13A          -27.4825042063       -0.2393742061       20.8615118536  MEMB      39              0.0000000000
      5751        67  DOPC      H13B          -27.2897429483       -1.7011320137       21.9065492224  MEMB      39              0.0000000000
      5752        67  DOPC      H13C          -26.8779114348       -1.7978194290       20.1928517949  MEMB      39              0.0000000000
      5753        67  DOPC      C14           -29.1940493106       -3.2214738485       20.9568984392  MEMB      39              0.0000000000
      5754        67  DOPC      H14A          -30.2621778705       -3.3809563277       20.9650592876  MEMB      39              0.0000000000
      5755        67  DOPC      H14B          -28.8058637519       -3.7764739448       20.1156570434  MEMB      39              0.0000000000
      5756        67  DOPC      H14C          -28.9047072174       -3.4810899276       21.9645098020  MEMB      39              0.0000000000
      5757        67  DOPC      C15           -29.8061590051       -0.9636113758       21.7469158349  MEMB      39              0.0000000000
      5758        67  DOPC      H15A          -30.8445774851       -1.1862291547       21.5506291460  MEMB      39              0.0000000000
      5759        67  DOPC      H15B          -29.6424607049        0.0910897277       21.5819659426  MEMB      39              0.0000000000
      5760        67  DOPC      H15C          -29.5828802418       -1.2862739642       22.7531142857  MEMB      39              0.0000000000
      5761        67  DOPC      C11           -28.8990822530       -2.1075341821       18.2113051604  MEMB      39              0.0000000000
      5762        67  DOPC      H11A          -29.1147421305       -1.5003378304       17.3062502500  MEMB      39              0.0000000000
      5763        67  DOPC      H11B          -27.8006856717       -2.2098512583       18.3431277619  MEMB      39              0.0000000000
      5764        67  DOPC      P             -29.1645333012       -4.5815907879       17.4008283073  MEMB      39              0.0000000000
      5765        67  DOPC      O13           -30.2746288668       -5.0869739492       16.5493798503  MEMB      39              0.0000000000
      5766        67  DOPC      O14           -28.5539440047       -5.5470561644       18.3432028202  MEMB      39              0.0000000000
      5767        67  DOPC      O12           -29.6948439070       -3.3193077433       18.1831062652  MEMB      39              0.0000000000
      5768        67  DOPC      O11           -28.0591067612       -3.9455482426       16.4349205541  MEMB      39              0.0000000000
      5769        67  DOPC      C1            -27.1401070146       -4.8295815963       15.7970469115  MEMB      39              0.0000000000
      5770        67  DOPC      HA            -27.6546681836       -5.7273555533       15.3926343359  MEMB      39              0.0000000000
      5771        67  DOPC      HB            -26.3337709478       -5.0139444612       16.5387703951  MEMB      39              0.0000000000
      5772        67  DOPC      C2            -26.4832980537       -4.1898721462       14.5047081188  MEMB      39              0.0000000000
      5773        67  DOPC      HS            -25.5814123520       -3.6970477856       14.9266649620  MEMB      39              0.0000000000
      5774        67  DOPC      O21           -27.4660878985       -3.2515039924       13.8734244106  MEMB      39              0.0000000000
      5775        67  DOPC      C21           -27.0478489545       -2.3998082857       13.0029261893  MEMB      39              0.0000000000
      5776        67  DOPC      O22           -25.9134355666       -2.2322045353       12.6525465692  MEMB      39              0.0000000000
      5777        67  DOPC      C22           -28.1338393892       -1.3245366683       12.7564587186  MEMB      39              0.0000000000
      5778        67  DOPC      H2R           -28.1103542659       -0.6548903438       13.6426547204  MEMB      39              0.0000000000
      5779        67  DOPC      H2S           -29.1407459809       -1.7449576116       12.5473983937  MEMB      39              0.0000000000
      5780        67  DOPC      C3            -26.0555961193       -5.2909591506       13.4562934677  MEMB      39              0.0000000000
      5781        67  DOPC      HX            -25.3966414331       -5.9263134228       14.0859161129  MEMB      39              0.0000000000
      5782        67  DOPC      HY            -25.5124892724       -4.9574148903       12.5462913501  MEMB      39              0.0000000000
      5783        67  DOPC      O31           -27.1737031054       -6.0688335629       13.0791637237  MEMB      39              0.0000000000
      5784        67  DOPC      C31           -26.9462667542       -7.3788980724       12.8141767290  MEMB      39              0.0000000000
      5785        67  DOPC      O32           -25.9001560430       -7.9508118552       12.9548007208  MEMB      39              0.0000000000
      5786        67  DOPC      C32           -28.1880500397       -8.0766764582       12.2439328424  MEMB      39              0.0000000000
      5787        67  DOPC      H2X           -27.8942430626       -9.0474182996       11.7904366206  MEMB      39              0.0000000000
      5788        67  DOPC      H2Y           -28.9498625498       -8.2950240868       13.0225772617  MEMB      39              0.0000000000
      5789        67  DOPC      C23           -27.7840294423       -0.4749337990       11.5201649916  MEMB      39              0.0000000000
      5790        67  DOPC      H3R           -26.7473896019       -0.0880675630       11.6203318128  MEMB      39              0.0000000000
      5791        67  DOPC      H3S           -28.5265739560        0.3480522243       11.4450481657  MEMB      39              0.0000000000
      5792        67  DOPC      C24           -27.9837372969       -1.1984539922       10.1451269799  MEMB      39              0.0000000000
      5793        67  DOPC      H4R           -29.0549949359       -1.0116154670        9.9174886524  MEMB      39              0.0000000000
      5794        67  DOPC      H4S           -27.7981301971       -2.2872470627       10.2651289978  MEMB      39              0.0000000000
      5795        67  DOPC      C25           -27.0865913626       -0.5664429528        9.1026813149  MEMB      39              0.0000000000
      5796        67  DOPC      H5R           -26.0391461084       -0.9302670706        9.0333159524  MEMB      39              0.0000000000
      5797        67  DOPC      H5S           -27.0008260289        0.5389961059        9.1731782752  MEMB      39              0.0000000000
      5798        67  DOPC      C26           -27.7536907763       -0.8671881340        7.7116056030  MEMB      39              0.0000000000
      5799        67  DOPC      H6R           -28.8505001350       -0.7586811925        7.8514499955  MEMB      39              0.0000000000
      5800        67  DOPC      H6S           -27.7088790272       -1.9627971237        7.5328484005  MEMB      39              0.0000000000
      5801        67  DOPC      C27           -27.2729111532       -0.0852680977        6.4864394439  MEMB      39              0.0000000000
      5802        67  DOPC      H7R           -27.4885890118        0.9938904094        6.6388223573  MEMB      39              0.0000000000
      5803        67  DOPC      H7S           -27.7405278367       -0.3624594354        5.5175113453  MEMB      39              0.0000000000
      5804        67  DOPC      C28           -25.6973866777       -0.0962629703        6.2494366464  MEMB      39              0.0000000000
      5805        67  DOPC      H8R           -25.2175836146        0.5578330834        7.0085598937  MEMB      39              0.0000000000
      5806        67  DOPC      H8S           -25.5625054412        0.3919362504        5.2606040395  MEMB      39              0.0000000000
      5807        67  DOPC      C29           -25.0127475714       -1.4324268180        6.2927392711  MEMB      39              0.0000000000
      5808        67  DOPC      H9R           -25.0575279628       -1.9465036808        7.2641909291  MEMB      39              0.0000000000
      5809        67  DOPC      C210          -24.4527796152       -2.1095749253        5.2485378966  MEMB      39              0.0000000000
      5810        67  DOPC      H10R          -24.1085823316       -3.1494300015        5.3496800936  MEMB      39              0.0000000000
      5811        67  DOPC      C211          -24.4120852612       -1.6681446626        3.8010408935  MEMB      39              0.0000000000
      5812        67  DOPC      H11R          -23.4292499011       -1.8485033425        3.3154204364  MEMB      39              0.0000000000
      5813        67  DOPC      H11S          -24.8118869059       -0.6437077344        3.6428992622  MEMB      39              0.0000000000
      5814        67  DOPC      C212          -25.3869434814       -2.6805684239        3.0691843015  MEMB      39              0.0000000000
      5815        67  DOPC      H12R          -25.0422013498       -3.7315947882        3.1731917646  MEMB      39              0.0000000000
      5816        67  DOPC      H12S          -25.2769307833       -2.5217344546        1.9751127224  MEMB      39              0.0000000000
      5817        67  DOPC      C213          -26.8310186244       -2.7058160399        3.4889615485  MEMB      39              0.0000000000
      5818        67  DOPC      H13R          -27.2398590202       -1.6869180125        3.6593058807  MEMB      39              0.0000000000
      5819        67  DOPC      H13S          -26.8660824700       -3.3824429311        4.3694546693  MEMB      39              0.0000000000
      5820        67  DOPC      C214          -27.7251497858       -3.3236201988        2.4548576562  MEMB      39              0.0000000000
      5821        67  DOPC      H14R          -27.2817125307       -3.9920757344        1.6861902421  MEMB      39              0.0000000000
      5822        67  DOPC      H14S          -27.9250891549       -2.4077249704        1.8586352546  MEMB      39              0.0000000000
      5823        67  DOPC      C215          -29.0404248624       -4.0149168268        2.9492240410  MEMB      39              0.0000000000
      5824        67  DOPC      H15R          -28.8142354148       -4.5483619457        3.8971674481  MEMB      39              0.0000000000
      5825        67  DOPC      H15S          -29.3735029871       -4.8029242245        2.2404058659  MEMB      39              0.0000000000
      5826        67  DOPC      C216          -30.1501269471       -2.9478055174        3.3640873090  MEMB      39              0.0000000000
      5827        67  DOPC      H16R          -29.6205639059       -2.1391009271        3.9117012435  MEMB      39              0.0000000000
      5828        67  DOPC      H16S          -30.8522004788       -3.4148786875        4.0874527024  MEMB      39              0.0000000000
      5829        67  DOPC      C217          -30.8729443629       -2.4270719998        2.1375814932  MEMB      39              0.0000000000
      5830        67  DOPC      H17R          -30.3438049510       -1.4735303841        1.9252344512  MEMB      39              0.0000000000
      5831        67  DOPC      H17S          -31.9081180162       -2.1224916091        2.4020956474  MEMB      39              0.0000000000
      5832        67  DOPC      C218          -30.9527427528       -3.2567690474        0.8635282048  MEMB      39              0.0000000000
      5833        67  DOPC      H18R          -31.3281710023       -4.2907472919        1.0192955560  MEMB      39              0.0000000000
      5834        67  DOPC      H18S          -30.0019664652       -3.3203084711        0.2922949440  MEMB      39              0.0000000000
      5835        67  DOPC      H18T          -31.6834724115       -2.6441530721        0.2933898673  MEMB      39              0.0000000000
      5836        67  DOPC      C33           -28.8865761688       -7.0787010811       11.1953973713  MEMB      39              0.0000000000
      5837        67  DOPC      H3X           -29.0279971235       -6.0257020515       11.5202269810  MEMB      39              0.0000000000
      5838        67  DOPC      H3Y           -29.8886010596       -7.5376354129       11.0552298371  MEMB      39              0.0000000000
      5839        67  DOPC      C34           -28.2162780996       -7.1089915893        9.8842941400  MEMB      39              0.0000000000
      5840        67  DOPC      H4X           -28.2005099329       -8.1314765497        9.4500168478  MEMB      39              0.0000000000
      5841        67  DOPC      H4Y           -27.1745546900       -6.8034474942       10.1204639721  MEMB      39              0.0000000000
      5842        67  DOPC      C35           -28.6297289553       -6.1045327454        8.7901963962  MEMB      39              0.0000000000
      5843        67  DOPC      H5X           -28.7526528790       -5.1536165397        9.3514176578  MEMB      39              0.0000000000
      5844        67  DOPC      H5Y           -29.6293080012       -6.4503465246        8.4502323935  MEMB      39              0.0000000000
      5845        67  DOPC      C36           -27.5971734200       -6.0781653370        7.6017330259  MEMB      39              0.0000000000
      5846        67  DOPC      H6X           -27.2682768191       -7.0786129182        7.2478221622  MEMB      39              0.0000000000
      5847        67  DOPC      H6Y           -27.9280254349       -5.4288436879        6.7631392951  MEMB      39              0.0000000000
      5848        67  DOPC      C37           -26.2785799695       -5.2448401560        7.9217325908  MEMB      39              0.0000000000
      5849        67  DOPC      H7X           -26.6365874264       -4.2753561453        8.3294724922  MEMB      39              0.0000000000
      5850        67  DOPC      H7Y           -25.7281322477       -5.5981137022        8.8198006643  MEMB      39              0.0000000000
      5851        67  DOPC      C38           -25.3486322139       -5.0464107609        6.7381124507  MEMB      39              0.0000000000
      5852        67  DOPC      H8X           -24.8510127397       -4.1276988715        7.1158223433  MEMB      39              0.0000000000
      5853        67  DOPC      H8Y           -25.9359648220       -4.8872074395        5.8085877660  MEMB      39              0.0000000000
      5854        67  DOPC      C39           -24.3912369920       -6.1913703850        6.6067653949  MEMB      39              0.0000000000
      5855        67  DOPC      H9X           -23.6007513320       -6.1140008274        7.3677825548  MEMB      39              0.0000000000
      5856        67  DOPC      C310          -24.2504776554       -7.1457985430        5.6416606067  MEMB      39              0.0000000000
      5857        67  DOPC      H10X          -23.4133165010       -7.8575519836        5.6923404067  MEMB      39              0.0000000000
      5858        67  DOPC      C311          -25.1307501714       -7.1979968592        4.4335639528  MEMB      39              0.0000000000
      5859        67  DOPC      H11X          -26.0564229879       -6.5932973650        4.5421418659  MEMB      39              0.0000000000
      5860        67  DOPC      H11Y          -25.5548625385       -8.2193130313        4.3269665520  MEMB      39              0.0000000000
      5861        67  DOPC      C312          -24.3408309658       -6.7944569006        3.1861750790  MEMB      39              0.0000000000
      5862        67  DOPC      H12X          -23.5285900839       -7.5399295542        3.0488574034  MEMB      39              0.0000000000
      5863        67  DOPC      H12Y          -23.9629969551       -5.7648695970        3.3636932070  MEMB      39              0.0000000000
      5864        67  DOPC      C313          -25.0821481161       -6.8522063999        1.8462910624  MEMB      39              0.0000000000
      5865        67  DOPC      H13X          -25.9319267588       -6.1382702879        1.8962148200  MEMB      39              0.0000000000
      5866        67  DOPC      H13Y          -24.3769082624       -6.4328513054        1.0972247222  MEMB      39              0.0000000000
      5867        67  DOPC      C314          -25.5518948407       -8.3005794026        1.5553725660  MEMB      39              0.0000000000
      5868        67  DOPC      H14X          -24.6105412193       -8.8851532709        1.4750700699  MEMB      39              0.0000000000
      5869        67  DOPC      H14Y          -26.3033114900       -8.7438930031        2.2432432993  MEMB      39              0.0000000000
      5870        67  DOPC      C315          -26.1318666762       -8.4389501085        0.1152535527  MEMB      39              0.0000000000
      5871        67  DOPC      H15X          -26.6985275521       -9.3881591625        0.2257937142  MEMB      39              0.0000000000
      5872        67  DOPC      H15Y          -25.2424565728       -8.6299137433       -0.5225564333  MEMB      39              0.0000000000
      5873        67  DOPC      C316          -27.1513633577       -7.3729587851       -0.4142411062  MEMB      39              0.0000000000
      5874        67  DOPC      H16X          -26.6517210472       -6.3822734090       -0.3574859937  MEMB      39              0.0000000000
      5875        67  DOPC      H16Y          -27.4548863975       -7.7098725043       -1.4284809838  MEMB      39              0.0000000000
      5876        67  DOPC      C317          -28.4347915435       -7.2599881991        0.3623733968  MEMB      39              0.0000000000
      5877        67  DOPC      H17X          -28.9157377627       -8.2563577557        0.2610836573  MEMB      39              0.0000000000
      5878        67  DOPC      H17Y          -28.1728971553       -7.1013455735        1.4303466470  MEMB      39              0.0000000000
      5879        67  DOPC      C318          -29.3207652474       -6.2143091541       -0.3568037486  MEMB      39              0.0000000000
      5880        67  DOPC      H18X          -29.5583292374       -6.5272290388       -1.3960170407  MEMB      39              0.0000000000
      5881        67  DOPC      H18Y          -30.2436723786       -6.1015316309        0.2513450486  MEMB      39              0.0000000000
      5882        67  DOPC      H18Z          -28.7210005113       -5.2915822896       -0.5090471762  MEMB      39              0.0000000000
      5883        68  DOPC      N              -5.3371910478      -30.9875635875       19.3454335139  MEMB      40              0.0000000000
      5884        68  DOPC      C12            -6.7540039650      -31.5571556167       19.3973121218  MEMB      40              0.0000000000
      5885        68  DOPC      H12A           -6.9365911315      -31.8831030803       20.4106334690  MEMB      40              0.0000000000
      5886        68  DOPC      H12B           -6.8350382107      -32.4719605757       18.8290117645  MEMB      40              0.0000000000
      5887        68  DOPC      C13            -5.1180300798      -29.8245187986       20.2129940265  MEMB      40              0.0000000000
      5888        68  DOPC      H13A           -5.8932818857      -29.0739020756       20.2572565565  MEMB      40              0.0000000000
      5889        68  DOPC      H13B           -5.0911224794      -29.9872629388       21.2803226899  MEMB      40              0.0000000000
      5890        68  DOPC      H13C           -4.1702090586      -29.4902368811       19.8176575135  MEMB      40              0.0000000000
      5891        68  DOPC      C14            -5.0284849767      -30.4965948005       17.9103214213  MEMB      40              0.0000000000
      5892        68  DOPC      H14A           -3.9950506777      -30.2117795140       17.7788164811  MEMB      40              0.0000000000
      5893        68  DOPC      H14B           -5.4131472346      -31.2430606532       17.2311870136  MEMB      40              0.0000000000
      5894        68  DOPC      H14C           -5.6993066496      -29.6705828968       17.7256526836  MEMB      40              0.0000000000
      5895        68  DOPC      C15            -4.3859792344      -32.1298325496       19.7279512822  MEMB      40              0.0000000000
      5896        68  DOPC      H15A           -4.5845739403      -32.4706367578       20.7333431053  MEMB      40              0.0000000000
      5897        68  DOPC      H15B           -3.3603265515      -31.7993358792       19.8001223286  MEMB      40              0.0000000000
      5898        68  DOPC      H15C           -4.3525434450      -32.9488510414       19.0247507694  MEMB      40              0.0000000000
      5899        68  DOPC      C11            -7.9121323720      -30.5613380174       18.9710683880  MEMB      40              0.0000000000
      5900        68  DOPC      H11A           -8.0272216644      -30.4943940075       17.8680752489  MEMB      40              0.0000000000
      5901        68  DOPC      H11B           -8.8700436165      -31.0735765796       19.2041747940  MEMB      40              0.0000000000
      5902        68  DOPC      P              -8.3072339819      -27.9698159141       18.7283966411  MEMB      40              0.0000000000
      5903        68  DOPC      O13            -7.8756269448      -26.8109089038       19.4401219123  MEMB      40              0.0000000000
      5904        68  DOPC      O14            -9.7726417499      -28.0546403530       18.3349162005  MEMB      40              0.0000000000
      5905        68  DOPC      O12            -7.8593729266      -29.2660925005       19.5842534332  MEMB      40              0.0000000000
      5906        68  DOPC      O11            -7.4346572624      -28.1447220869       17.3472310593  MEMB      40              0.0000000000
      5907        68  DOPC      C1             -7.5961187310      -27.3375666581       16.2481861628  MEMB      40              0.0000000000
      5908        68  DOPC      HA             -7.0002865759      -26.4006740651       16.2873966991  MEMB      40              0.0000000000
      5909        68  DOPC      HB             -8.6593955831      -27.0378709533       16.1300934452  MEMB      40              0.0000000000
      5910        68  DOPC      C2             -7.1466559607      -28.1395075101       14.9009820294  MEMB      40              0.0000000000
      5911        68  DOPC      HS             -7.1022161272      -27.3704195788       14.1004511579  MEMB      40              0.0000000000
      5912        68  DOPC      O21            -7.9945242657      -29.2305567743       14.5871661529  MEMB      40              0.0000000000
      5913        68  DOPC      C21            -9.3070636503      -29.1627397301       14.2575381967  MEMB      40              0.0000000000
      5914        68  DOPC      O22            -9.9738615585      -28.1758302902       14.0966873077  MEMB      40              0.0000000000
      5915        68  DOPC      C22            -9.9240432437      -30.5973698979       14.3379037055  MEMB      40              0.0000000000
      5916        68  DOPC      H2R           -10.9550580612      -30.4998837755       14.7401796581  MEMB      40              0.0000000000
      5917        68  DOPC      H2S            -9.2806566848      -31.1189530116       15.0783940012  MEMB      40              0.0000000000
      5918        68  DOPC      C3             -5.7007344578      -28.7311724446       14.9175464986  MEMB      40              0.0000000000
      5919        68  DOPC      HX             -5.8076468514      -29.6324485341       15.5583211649  MEMB      40              0.0000000000
      5920        68  DOPC      HY             -4.9233270746      -28.0812053051       15.3730699061  MEMB      40              0.0000000000
      5921        68  DOPC      O31            -5.2040114327      -29.0340156270       13.5880379400  MEMB      40              0.0000000000
      5922        68  DOPC      C31            -4.4078188079      -30.1277573869       13.6111301312  MEMB      40              0.0000000000
      5923        68  DOPC      O32            -3.9108416833      -30.6509785189       14.6221302999  MEMB      40              0.0000000000
      5924        68  DOPC      C32            -4.0977557146      -30.5859678919       12.1410263589  MEMB      40              0.0000000000
      5925        68  DOPC      H2X            -4.9622895373      -31.0574852909       11.6266593989  MEMB      40              0.0000000000
      5926        68  DOPC      H2Y            -3.7310988130      -29.7455471305       11.5136694784  MEMB      40              0.0000000000
      5927        68  DOPC      C23            -9.8099562443      -31.2995256775       12.9427842958  MEMB      40              0.0000000000
      5928        68  DOPC      H3R           -10.0456105020      -30.5077903737       12.1998554097  MEMB      40              0.0000000000
      5929        68  DOPC      H3S           -10.6451640463      -32.0296988531       12.8828156709  MEMB      40              0.0000000000
      5930        68  DOPC      C24            -8.4065006707      -31.8888064813       12.6131117977  MEMB      40              0.0000000000
      5931        68  DOPC      H4R            -8.0570939497      -32.5104763585       13.4650287600  MEMB      40              0.0000000000
      5932        68  DOPC      H4S            -7.6764130320      -31.0609396644       12.4868995748  MEMB      40              0.0000000000
      5933        68  DOPC      C25            -8.3711313941      -32.7051757278       11.2557615285  MEMB      40              0.0000000000
      5934        68  DOPC      H5R            -9.1347442164      -33.5109290907       11.2112886891  MEMB      40              0.0000000000
      5935        68  DOPC      H5S            -7.3758098711      -33.1333127142       11.0100900215  MEMB      40              0.0000000000
      5936        68  DOPC      C26            -8.6406686134      -31.8224993994        9.9663187748  MEMB      40              0.0000000000
      5937        68  DOPC      H6R            -9.7241559745      -31.6406665924        9.8010532484  MEMB      40              0.0000000000
      5938        68  DOPC      H6S            -8.2564168369      -32.3608475694        9.0736531246  MEMB      40              0.0000000000
      5939        68  DOPC      C27            -7.9709287654      -30.4482823014       10.0840352987  MEMB      40              0.0000000000
      5940        68  DOPC      H7R            -6.9088465450      -30.6476923032       10.3419850776  MEMB      40              0.0000000000
      5941        68  DOPC      H7S            -8.5086481010      -29.8839377002       10.8756755378  MEMB      40              0.0000000000
      5942        68  DOPC      C28            -7.9448264169      -29.5931724358        8.7471690483  MEMB      40              0.0000000000
      5943        68  DOPC      H8R            -8.9447687830      -29.8359813261        8.3282650168  MEMB      40              0.0000000000
      5944        68  DOPC      H8S            -7.2224229741      -30.1792283228        8.1397208036  MEMB      40              0.0000000000
      5945        68  DOPC      C29            -7.7582718138      -28.1048559797        8.7753865175  MEMB      40              0.0000000000
      5946        68  DOPC      H9R            -8.7654828055      -27.6869644638        8.6308435379  MEMB      40              0.0000000000
      5947        68  DOPC      C210           -6.5814831070      -27.4805101273        8.8684844352  MEMB      40              0.0000000000
      5948        68  DOPC      H10R           -6.5257052667      -26.4026530600        8.6560873766  MEMB      40              0.0000000000
      5949        68  DOPC      C211           -5.2790294424      -28.1907062100        9.0180673142  MEMB      40              0.0000000000
      5950        68  DOPC      H11R           -5.3333887789      -29.2642366557        8.7371789282  MEMB      40              0.0000000000
      5951        68  DOPC      H11S           -4.9731323866      -28.1283558868       10.0843040992  MEMB      40              0.0000000000
      5952        68  DOPC      C212           -4.0697994509      -27.5992204588        8.2357281831  MEMB      40              0.0000000000
      5953        68  DOPC      H12R           -3.1074159333      -28.0968988966        8.4816048103  MEMB      40              0.0000000000
      5954        68  DOPC      H12S           -4.0016332837      -26.5198685409        8.4900378988  MEMB      40              0.0000000000
      5955        68  DOPC      C213           -4.0762875961      -27.7397651466        6.6929976796  MEMB      40              0.0000000000
      5956        68  DOPC      H13R           -3.4469762291      -26.8646421857        6.4238365644  MEMB      40              0.0000000000
      5957        68  DOPC      H13S           -5.0681714388      -27.4750156187        6.2682682392  MEMB      40              0.0000000000
      5958        68  DOPC      C214           -3.5005532651      -28.9958927534        6.1723150780  MEMB      40              0.0000000000
      5959        68  DOPC      H14R           -3.9136679491      -29.9821130463        6.4740211759  MEMB      40              0.0000000000
      5960        68  DOPC      H14S           -2.4740277377      -29.0295106318        6.5959137230  MEMB      40              0.0000000000
      5961        68  DOPC      C215           -3.3166137725      -28.9760136833        4.6499381577  MEMB      40              0.0000000000
      5962        68  DOPC      H15R           -2.7332556222      -28.1074569270        4.2762760287  MEMB      40              0.0000000000
      5963        68  DOPC      H15S           -4.3559751493      -28.8866372130        4.2677588447  MEMB      40              0.0000000000
      5964        68  DOPC      C216           -2.8550564278      -30.3552704519        4.1134577578  MEMB      40              0.0000000000
      5965        68  DOPC      H16R           -3.3260159967      -31.2375933361        4.5972189875  MEMB      40              0.0000000000
      5966        68  DOPC      H16S           -1.7535859989      -30.4152169243        4.2457097257  MEMB      40              0.0000000000
      5967        68  DOPC      C217           -3.2044445878      -30.4242973661        2.6562816644  MEMB      40              0.0000000000
      5968        68  DOPC      H17R           -2.8892361279      -29.5802522169        2.0062410938  MEMB      40              0.0000000000
      5969        68  DOPC      H17S           -4.2982840144      -30.5777361580        2.5367289085  MEMB      40              0.0000000000
      5970        68  DOPC      C218           -2.5274053012      -31.6715031559        1.9741171316  MEMB      40              0.0000000000
      5971        68  DOPC      H18R           -2.8153379298      -31.5459936678        0.9084430019  MEMB      40              0.0000000000
      5972        68  DOPC      H18S           -2.8535049641      -32.6417197265        2.4061592221  MEMB      40              0.0000000000
      5973        68  DOPC      H18T           -1.4192460125      -31.6058490122        2.0187672337  MEMB      40              0.0000000000
      5974        68  DOPC      C33            -3.0557609563      -31.6848108728       12.0532706706  MEMB      40              0.0000000000
      5975        68  DOPC      H3X            -3.2563669273      -32.6823431639       12.4993735690  MEMB      40              0.0000000000
      5976        68  DOPC      H3Y            -2.1666041600      -31.2924414347       12.5915711269  MEMB      40              0.0000000000
      5977        68  DOPC      C34            -2.5673578741      -31.8866056022       10.5652279568  MEMB      40              0.0000000000
      5978        68  DOPC      H4X            -1.8673732935      -32.7450285473       10.6515571587  MEMB      40              0.0000000000
      5979        68  DOPC      H4Y            -2.0004397098      -30.9923997747       10.2285964698  MEMB      40              0.0000000000
      5980        68  DOPC      C35            -3.6539574119      -32.1295616666        9.5324669741  MEMB      40              0.0000000000
      5981        68  DOPC      H5X            -4.2248014975      -31.2016899962        9.3144938314  MEMB      40              0.0000000000
      5982        68  DOPC      H5Y            -4.2508696917      -32.9562634965        9.9735802688  MEMB      40              0.0000000000
      5983        68  DOPC      C36            -3.0781617647      -32.5504966820        8.1653250790  MEMB      40              0.0000000000
      5984        68  DOPC      H6X            -2.5245958667      -31.6952220363        7.7221646673  MEMB      40              0.0000000000
      5985        68  DOPC      H6Y            -2.3620556007      -33.3404344637        8.4775929407  MEMB      40              0.0000000000
      5986        68  DOPC      C37            -4.0646963194      -33.1042442468        7.1277600502  MEMB      40              0.0000000000
      5987        68  DOPC      H7X            -4.4527140134      -32.2136846467        6.5886252031  MEMB      40              0.0000000000
      5988        68  DOPC      H7Y            -3.4629454003      -33.6643727376        6.3804503706  MEMB      40              0.0000000000
      5989        68  DOPC      C38            -5.3313869757      -33.8340512747        7.6204118002  MEMB      40              0.0000000000
      5990        68  DOPC      H8X            -6.0855534886      -33.0589521426        7.8749217277  MEMB      40              0.0000000000
      5991        68  DOPC      H8Y            -5.0986224563      -34.3905307797        8.5534025913  MEMB      40              0.0000000000
      5992        68  DOPC      C39            -5.7354137117      -34.8357001401        6.5063208714  MEMB      40              0.0000000000
      5993        68  DOPC      H9X            -4.9332935390      -35.5740402673        6.3598381933  MEMB      40              0.0000000000
      5994        68  DOPC      C310           -6.8797904568      -34.8713765985        5.8782061076  MEMB      40              0.0000000000
      5995        68  DOPC      H10X           -7.0474495051      -35.7990376081        5.3113410204  MEMB      40              0.0000000000
      5996        68  DOPC      C311           -8.1577765582      -34.0612998106        6.0149356368  MEMB      40              0.0000000000
      5997        68  DOPC      H11X           -7.8770992773      -33.1548713254        6.5928003186  MEMB      40              0.0000000000
      5998        68  DOPC      H11Y           -8.9408978352      -34.6009595707        6.5892256307  MEMB      40              0.0000000000
      5999        68  DOPC      C312           -8.7357691157      -33.6014519570        4.6758831619  MEMB      40              0.0000000000
      6000        68  DOPC      H12X           -9.7331525371      -33.1922642009        4.9444213905  MEMB      40              0.0000000000
      6001        68  DOPC      H12Y           -8.9323591940      -34.4938568404        4.0439910002  MEMB      40              0.0000000000
      6002        68  DOPC      C313           -7.9016512340      -32.7230697801        3.7868849896  MEMB      40              0.0000000000
      6003        68  DOPC      H13X           -7.6031391908      -31.8271349251        4.3721296094  MEMB      40              0.0000000000
      6004        68  DOPC      H13Y           -7.0081521145      -33.2889656704        3.4466752520  MEMB      40              0.0000000000
      6005        68  DOPC      C314           -8.6896498168      -32.2631933966        2.5284068752  MEMB      40              0.0000000000
      6006        68  DOPC      H14X           -9.0304573341      -33.2339497465        2.1091193063  MEMB      40              0.0000000000
      6007        68  DOPC      H14Y           -9.5860022240      -31.6907567706        2.8496391141  MEMB      40              0.0000000000
      6008        68  DOPC      C315           -7.8033482505      -31.5174185184        1.5000931870  MEMB      40              0.0000000000
      6009        68  DOPC      H15X           -8.3962784283      -31.3787852399        0.5708273957  MEMB      40              0.0000000000
      6010        68  DOPC      H15Y           -6.9867923687      -32.2247333113        1.2407439450  MEMB      40              0.0000000000
      6011        68  DOPC      C316           -7.3130137377      -30.1587760553        2.0099948051  MEMB      40              0.0000000000
      6012        68  DOPC      H16X           -8.1307751389      -29.6631177701        2.5756017869  MEMB      40              0.0000000000
      6013        68  DOPC      H16Y           -6.6075747261      -30.3569309538        2.8451068526  MEMB      40              0.0000000000
      6014        68  DOPC      C317           -6.5359835710      -29.2991810921        1.0051258011  MEMB      40              0.0000000000
      6015        68  DOPC      H17X           -5.9357699419      -28.5616549550        1.5796864247  MEMB      40              0.0000000000
      6016        68  DOPC      H17Y           -5.6921239220      -29.8407640951        0.5266818021  MEMB      40              0.0000000000
      6017        68  DOPC      C318           -7.2346446670      -28.6297855986       -0.1797692849  MEMB      40              0.0000000000
      6018        68  DOPC      H18X           -6.4869232648      -28.1087249799       -0.8151660564  MEMB      40              0.0000000000
      6019        68  DOPC      H18Y           -7.6098822407      -29.3789037425       -0.9093872207  MEMB      40              0.0000000000
      6020        68  DOPC      H18Z           -8.0524152477      -27.9426502883        0.1258711754  MEMB      40              0.0000000000
      6021        69  DOPC      N              28.2012208007       16.5162435276       21.0887351856  MEMB      41              0.0000000000
      6022        69  DOPC      C12            26.9065357981       16.7928079816       20.2021143809  MEMB      41              0.0000000000
      6023        69  DOPC      H12A           26.6684033364       17.8412565588       20.3043322988  MEMB      41              0.0000000000
      6024        69  DOPC      H12B           26.0649218760       16.2751065713       20.6380858131  MEMB      41              0.0000000000
      6025        69  DOPC      C13            28.7203066006       15.1958690547       20.6091872113  MEMB      41              0.0000000000
      6026        69  DOPC      H13A           29.7927209491       15.1313808890       20.7195000996  MEMB      41              0.0000000000
      6027        69  DOPC      H13B           28.3067547720       14.3419573193       21.1251422150  MEMB      41              0.0000000000
      6028        69  DOPC      H13C           28.3923104802       14.9739075105       19.6044225646  MEMB      41              0.0000000000
      6029        69  DOPC      C14            27.7791812319       16.5562720777       22.5432873275  MEMB      41              0.0000000000
      6030        69  DOPC      H14A           26.9658278252       15.8534238584       22.6475024681  MEMB      41              0.0000000000
      6031        69  DOPC      H14B           28.6078921399       16.4050205032       23.2191282224  MEMB      41              0.0000000000
      6032        69  DOPC      H14C           27.3233318992       17.5248557383       22.6862803058  MEMB      41              0.0000000000
      6033        69  DOPC      C15            29.1707081821       17.6518631036       20.8452151242  MEMB      41              0.0000000000
      6034        69  DOPC      H15A           28.6856953803       18.6168304895       20.8459253407  MEMB      41              0.0000000000
      6035        69  DOPC      H15B           29.6726498924       17.6429913150       19.8889851803  MEMB      41              0.0000000000
      6036        69  DOPC      H15C           30.1156694544       17.5270506109       21.3530244495  MEMB      41              0.0000000000
      6037        69  DOPC      C11            26.8692168415       16.4017129328       18.6679204879  MEMB      41              0.0000000000
      6038        69  DOPC      H11A           27.0424985096       15.3118423401       18.5395591497  MEMB      41              0.0000000000
      6039        69  DOPC      H11B           25.8581109519       16.7191393617       18.3344145131  MEMB      41              0.0000000000
      6040        69  DOPC      P              27.7453695720       18.2711030236       17.0182084749  MEMB      41              0.0000000000
      6041        69  DOPC      O13            28.8516335971       19.2051309056       17.1710841402  MEMB      41              0.0000000000
      6042        69  DOPC      O14            26.3461788685       18.9079264396       17.2235577736  MEMB      41              0.0000000000
      6043        69  DOPC      O12            28.0024087937       17.0334673106       18.0410986693  MEMB      41              0.0000000000
      6044        69  DOPC      O11            27.8623898313       17.7092321591       15.5895912262  MEMB      41              0.0000000000
      6045        69  DOPC      C1             27.6179012421       16.3231948723       15.3279875672  MEMB      41              0.0000000000
      6046        69  DOPC      HA             26.9846993094       15.8256221281       16.0933618067  MEMB      41              0.0000000000
      6047        69  DOPC      HB             28.5850724523       15.7778055617       15.3660870198  MEMB      41              0.0000000000
      6048        69  DOPC      C2             26.9279783071       16.0613385008       13.9294006286  MEMB      41              0.0000000000
      6049        69  DOPC      HS             27.0774809948       14.9838229040       13.7037240801  MEMB      41              0.0000000000
      6050        69  DOPC      O21            27.4612885235       16.9304146166       12.9273912530  MEMB      41              0.0000000000
      6051        69  DOPC      C21            28.7582650299       16.8637954860       12.8216258227  MEMB      41              0.0000000000
      6052        69  DOPC      O22            29.4682850178       15.9532947498       13.0852453250  MEMB      41              0.0000000000
      6053        69  DOPC      C22            29.3799860705       18.2446338523       12.3893950485  MEMB      41              0.0000000000
      6054        69  DOPC      H2R            29.4364716147       18.9014302919       13.2836813970  MEMB      41              0.0000000000
      6055        69  DOPC      H2S            28.7404218866       18.7819551727       11.6568891423  MEMB      41              0.0000000000
      6056        69  DOPC      C3             25.3668118446       16.3594128482       13.9642214592  MEMB      41              0.0000000000
      6057        69  DOPC      HX             24.8669688593       15.6110207633       14.6156717332  MEMB      41              0.0000000000
      6058        69  DOPC      HY             24.8325996633       16.1631543818       13.0100616180  MEMB      41              0.0000000000
      6059        69  DOPC      O31            25.1915607271       17.7190774043       14.3651843723  MEMB      41              0.0000000000
      6060        69  DOPC      C31            25.1669280069       18.5688294543       13.3588474091  MEMB      41              0.0000000000
      6061        69  DOPC      O32            25.2057242126       18.3297134150       12.1839665462  MEMB      41              0.0000000000
      6062        69  DOPC      C32            24.8503804280       19.9298467612       13.9823816905  MEMB      41              0.0000000000
      6063        69  DOPC      H2X            23.8144488865       19.8665409120       14.3788148933  MEMB      41              0.0000000000
      6064        69  DOPC      H2Y            25.5373399920       20.2475593498       14.7956872973  MEMB      41              0.0000000000
      6065        69  DOPC      C23            30.7465202887       17.9993027780       11.6767238416  MEMB      41              0.0000000000
      6066        69  DOPC      H3R            31.3968348765       17.3590833720       12.3103889224  MEMB      41              0.0000000000
      6067        69  DOPC      H3S            31.2838490448       18.9715767441       11.6935273988  MEMB      41              0.0000000000
      6068        69  DOPC      C24            30.6628042495       17.5169486590       10.1990213568  MEMB      41              0.0000000000
      6069        69  DOPC      H4R            29.9685077776       16.6496309650       10.2048044967  MEMB      41              0.0000000000
      6070        69  DOPC      H4S            31.6401029102       17.0466572844        9.9581195959  MEMB      41              0.0000000000
      6071        69  DOPC      C25            30.2805055093       18.6033858695        9.2040088942  MEMB      41              0.0000000000
      6072        69  DOPC      H5R            31.1118120479       19.3365873033        9.2792839047  MEMB      41              0.0000000000
      6073        69  DOPC      H5S            29.3405775935       19.1310760490        9.4730800551  MEMB      41              0.0000000000
      6074        69  DOPC      C26            30.2366111900       18.2072193580        7.7353863751  MEMB      41              0.0000000000
      6075        69  DOPC      H6R            30.6830964509       17.2062291361        7.5537538760  MEMB      41              0.0000000000
      6076        69  DOPC      H6S            30.7754091433       18.9504870145        7.1096301271  MEMB      41              0.0000000000
      6077        69  DOPC      C27            28.8428704209       18.1366149560        7.0319454787  MEMB      41              0.0000000000
      6078        69  DOPC      H7R            28.9142625955       17.9818323264        5.9340988645  MEMB      41              0.0000000000
      6079        69  DOPC      H7S            28.1740144706       18.9799097404        7.3072756006  MEMB      41              0.0000000000
      6080        69  DOPC      C28            28.0515812165       16.8395018313        7.6163510369  MEMB      41              0.0000000000
      6081        69  DOPC      H8R            27.0955492650       16.8664870498        7.0510231025  MEMB      41              0.0000000000
      6082        69  DOPC      H8S            27.7720219556       16.9362306192        8.6872434717  MEMB      41              0.0000000000
      6083        69  DOPC      C29            28.6128025517       15.4311610492        7.4950935413  MEMB      41              0.0000000000
      6084        69  DOPC      H9R            29.2377565677       14.9875074539        8.2841464029  MEMB      41              0.0000000000
      6085        69  DOPC      C210           28.4824729337       14.6359063406        6.4144229015  MEMB      41              0.0000000000
      6086        69  DOPC      H10R           28.9838611010       13.6568386763        6.4083936965  MEMB      41              0.0000000000
      6087        69  DOPC      C211           27.7400667185       14.9630516922        5.1874546372  MEMB      41              0.0000000000
      6088        69  DOPC      H11R           27.8359738020       14.0996877567        4.4948322855  MEMB      41              0.0000000000
      6089        69  DOPC      H11S           28.0839522602       15.9724938567        4.8758610381  MEMB      41              0.0000000000
      6090        69  DOPC      C212           26.2128897004       14.9045566118        5.3215544203  MEMB      41              0.0000000000
      6091        69  DOPC      H12R           25.8392751640       15.6588411463        6.0466673989  MEMB      41              0.0000000000
      6092        69  DOPC      H12S           25.9564932397       13.8921174754        5.7004334144  MEMB      41              0.0000000000
      6093        69  DOPC      C213           25.5303310923       14.9685044276        3.9397584533  MEMB      41              0.0000000000
      6094        69  DOPC      H13R           26.1699929371       14.6064195009        3.1066628447  MEMB      41              0.0000000000
      6095        69  DOPC      H13S           25.3421951493       16.0566322721        3.8176772042  MEMB      41              0.0000000000
      6096        69  DOPC      C214           24.2106478085       14.1105251664        3.9149289131  MEMB      41              0.0000000000
      6097        69  DOPC      H14R           23.5673864623       14.6326913742        4.6551170723  MEMB      41              0.0000000000
      6098        69  DOPC      H14S           24.4256044129       13.0828583050        4.2782686959  MEMB      41              0.0000000000
      6099        69  DOPC      C215           23.3899512947       14.0894868961        2.6091646463  MEMB      41              0.0000000000
      6100        69  DOPC      H15R           22.5728860317       13.3753476639        2.8473459937  MEMB      41              0.0000000000
      6101        69  DOPC      H15S           23.9672359978       13.5361736824        1.8378629048  MEMB      41              0.0000000000
      6102        69  DOPC      C216           22.8174798325       15.4042443922        2.3167763394  MEMB      41              0.0000000000
      6103        69  DOPC      H16R           23.5721675746       16.2069653261        2.4596268739  MEMB      41              0.0000000000
      6104        69  DOPC      H16S           21.9708949052       15.5850069121        3.0131534253  MEMB      41              0.0000000000
      6105        69  DOPC      C217           22.1748627195       15.4854172998        0.9490484788  MEMB      41              0.0000000000
      6106        69  DOPC      H17R           21.7977110034       14.4903868412        0.6296853376  MEMB      41              0.0000000000
      6107        69  DOPC      H17S           22.9513961776       15.6337883895        0.1684691807  MEMB      41              0.0000000000
      6108        69  DOPC      C218           21.1933101627       16.6569319345        0.8966067898  MEMB      41              0.0000000000
      6109        69  DOPC      H18R           20.6304661817       16.6746908548        1.8543186789  MEMB      41              0.0000000000
      6110        69  DOPC      H18S           20.3632659618       16.5232570118        0.1703297554  MEMB      41              0.0000000000
      6111        69  DOPC      H18T           21.6765386071       17.6467365729        0.7513559935  MEMB      41              0.0000000000
      6112        69  DOPC      C33            24.7663894981       21.1257864136       12.9276702212  MEMB      41              0.0000000000
      6113        69  DOPC      H3X            24.5385557314       22.0661886242       13.4736154832  MEMB      41              0.0000000000
      6114        69  DOPC      H3Y            23.8823183303       20.9947897335       12.2676861927  MEMB      41              0.0000000000
      6115        69  DOPC      C34            26.0728748019       21.2645559415       12.2554100630  MEMB      41              0.0000000000
      6116        69  DOPC      H4X            26.3671835432       20.3404780097       11.7133922744  MEMB      41              0.0000000000
      6117        69  DOPC      H4Y            26.9013966413       21.4136654122       12.9804200303  MEMB      41              0.0000000000
      6118        69  DOPC      C35            26.0247982513       22.4398963339       11.1555492890  MEMB      41              0.0000000000
      6119        69  DOPC      H5X            26.0850120860       23.4221687922       11.6711423387  MEMB      41              0.0000000000
      6120        69  DOPC      H5Y            25.0466295465       22.3745075332       10.6328339040  MEMB      41              0.0000000000
      6121        69  DOPC      C36            27.2434864958       22.2462591951       10.1031118242  MEMB      41              0.0000000000
      6122        69  DOPC      H6X            28.1121579065       22.8553740689       10.4328242017  MEMB      41              0.0000000000
      6123        69  DOPC      H6Y            27.5013226838       21.1655924818       10.1037661180  MEMB      41              0.0000000000
      6124        69  DOPC      C37            26.7619708522       22.5407748090        8.6438606421  MEMB      41              0.0000000000
      6125        69  DOPC      H7X            25.6802985237       22.3131857134        8.5320171872  MEMB      41              0.0000000000
      6126        69  DOPC      H7Y            26.9311319535       23.6208850535        8.4462043750  MEMB      41              0.0000000000
      6127        69  DOPC      C38            27.4609207460       21.6533464548        7.5663111088  MEMB      41              0.0000000000
      6128        69  DOPC      H8X            26.8287075639       21.9011054737        6.6869679213  MEMB      41              0.0000000000
      6129        69  DOPC      H8Y            27.3249851158       20.6306030603        7.9784252842  MEMB      41              0.0000000000
      6130        69  DOPC      C39            28.9996704876       21.8233252447        7.3580458643  MEMB      41              0.0000000000
      6131        69  DOPC      H9X            29.5196354642       21.8536314151        8.3269199153  MEMB      41              0.0000000000
      6132        69  DOPC      C310           29.6291408927       21.9311680393        6.1611174172  MEMB      41              0.0000000000
      6133        69  DOPC      H10X           30.7114660191       21.9935338283        5.9748826031  MEMB      41              0.0000000000
      6134        69  DOPC      C311           28.9237541525       21.8566246511        4.8194156707  MEMB      41              0.0000000000
      6135        69  DOPC      H11X           28.5310655459       22.7860807290        4.3544110113  MEMB      41              0.0000000000
      6136        69  DOPC      H11Y           28.0147189443       21.2197537878        4.8681136006  MEMB      41              0.0000000000
      6137        69  DOPC      C312           29.9310253465       21.3062829620        3.7828801630  MEMB      41              0.0000000000
      6138        69  DOPC      H12X           30.2522173555       20.3190370970        4.1784841593  MEMB      41              0.0000000000
      6139        69  DOPC      H12Y           30.8686003312       21.9019796332        3.8033624686  MEMB      41              0.0000000000
      6140        69  DOPC      C313           29.4555305539       21.1652132285        2.2870560228  MEMB      41              0.0000000000
      6141        69  DOPC      H13X           30.2225819012       20.5499364230        1.7699614671  MEMB      41              0.0000000000
      6142        69  DOPC      H13Y           28.5404837260       20.5352249756        2.2982217306  MEMB      41              0.0000000000
      6143        69  DOPC      C314           29.3303205982       22.4277700637        1.4371661456  MEMB      41              0.0000000000
      6144        69  DOPC      H14X           28.6721499479       23.1303908973        1.9916531871  MEMB      41              0.0000000000
      6145        69  DOPC      H14Y           30.3454666557       22.8642226944        1.3218046060  MEMB      41              0.0000000000
      6146        69  DOPC      C315           28.7572689606       22.2224355500        0.0141279878  MEMB      41              0.0000000000
      6147        69  DOPC      H15X           28.5420169579       23.2079257576       -0.4514861081  MEMB      41              0.0000000000
      6148        69  DOPC      H15Y           27.7439620074       21.7724974190        0.0854430879  MEMB      41              0.0000000000
      6149        69  DOPC      C316           29.6353366001       21.5226934198       -0.9123362886  MEMB      41              0.0000000000
      6150        69  DOPC      H16X           29.8834049987       22.1448111697       -1.7987631398  MEMB      41              0.0000000000
      6151        69  DOPC      H16Y           30.6077875198       21.3878219233       -0.3922690930  MEMB      41              0.0000000000
      6152        69  DOPC      C317           29.0660360220       20.2366862037       -1.5410852389  MEMB      41              0.0000000000
      6153        69  DOPC      H17X           29.8500147260       19.7981233537       -2.1948134850  MEMB      41              0.0000000000
      6154        69  DOPC      H17Y           28.6630854811       19.4888892766       -0.8250181400  MEMB      41              0.0000000000
      6155        69  DOPC      C318           27.8662645440       20.6251322803       -2.4501219258  MEMB      41              0.0000000000
      6156        69  DOPC      H18X           27.0570975461       20.9472232358       -1.7603195136  MEMB      41              0.0000000000
      6157        69  DOPC      H18Y           28.2313543761       21.5024073892       -3.0258126531  MEMB      41              0.0000000000
      6158        69  DOPC      H18Z           27.5700729135       19.7813228210       -3.1093471486  MEMB      41              0.0000000000
      6159        70  DOPC      N              16.4300406819       29.7873935541       19.8184459338  MEMB      42              0.0000000000
      6160        70  DOPC      C12            15.8411375241       29.9258749913       18.4556217734  MEMB      42              0.0000000000
      6161        70  DOPC      H12A           16.5846304156       29.4476311119       17.8352179234  MEMB      42              0.0000000000
      6162        70  DOPC      H12B           15.8593613211       30.9920034324       18.2840471137  MEMB      42              0.0000000000
      6163        70  DOPC      C13            15.6489074571       30.7130293259       20.7606928365  MEMB      42              0.0000000000
      6164        70  DOPC      H13A           16.2384171938       30.8795413486       21.6501601847  MEMB      42              0.0000000000
      6165        70  DOPC      H13B           15.5321707866       31.6571248540       20.2493649239  MEMB      42              0.0000000000
      6166        70  DOPC      H13C           14.6617322391       30.2762656237       20.7941950009  MEMB      42              0.0000000000
      6167        70  DOPC      C14            17.8706837447       30.1952538668       19.8532080812  MEMB      42              0.0000000000
      6168        70  DOPC      H14A           18.6066236989       29.6699444221       19.2625793627  MEMB      42              0.0000000000
      6169        70  DOPC      H14B           18.0103963766       31.1803228103       19.4330662771  MEMB      42              0.0000000000
      6170        70  DOPC      H14C           18.2772584433       30.2291151479       20.8531833095  MEMB      42              0.0000000000
      6171        70  DOPC      C15            16.3181853690       28.3870760359       20.3962473237  MEMB      42              0.0000000000
      6172        70  DOPC      H15A           16.7434948943       28.3315846362       21.3874245521  MEMB      42              0.0000000000
      6173        70  DOPC      H15B           16.8029914615       27.7091518210       19.7093835824  MEMB      42              0.0000000000
      6174        70  DOPC      H15C           15.2767161376       28.1160395668       20.3052467755  MEMB      42              0.0000000000
      6175        70  DOPC      C11            14.3926137760       29.4648295080       18.0797153589  MEMB      42              0.0000000000
      6176        70  DOPC      H11A           14.3519515686       29.4401416951       16.9697342056  MEMB      42              0.0000000000
      6177        70  DOPC      H11B           14.4216749427       28.4578819526       18.5482588486  MEMB      42              0.0000000000
      6178        70  DOPC      P              11.9231107372       30.0459047223       18.3784312043  MEMB      42              0.0000000000
      6179        70  DOPC      O13            11.1297803194       30.7455964369       19.4069217010  MEMB      42              0.0000000000
      6180        70  DOPC      O14            11.7753933468       28.5787208375       18.1644088405  MEMB      42              0.0000000000
      6181        70  DOPC      O12            13.3910794727       30.3608203526       18.6555862460  MEMB      42              0.0000000000
      6182        70  DOPC      O11            11.6674656636       30.8332336051       17.0307207199  MEMB      42              0.0000000000
      6183        70  DOPC      C1             12.2255880961       32.0564603153       16.6775888996  MEMB      42              0.0000000000
      6184        70  DOPC      HA             13.2592723289       32.2100961899       17.0547016378  MEMB      42              0.0000000000
      6185        70  DOPC      HB             11.5595289298       32.8501272660       17.0785617037  MEMB      42              0.0000000000
      6186        70  DOPC      C2             12.3709563680       32.2575629937       15.0623082364  MEMB      42              0.0000000000
      6187        70  DOPC      HS             11.4225685580       32.6413534814       14.6291957482  MEMB      42              0.0000000000
      6188        70  DOPC      O21            12.8152483283       31.0747875355       14.4549171999  MEMB      42              0.0000000000
      6189        70  DOPC      C21            12.5845314597       30.7467733671       13.2652507420  MEMB      42              0.0000000000
      6190        70  DOPC      O22            11.7336481248       31.2025060040       12.4878035950  MEMB      42              0.0000000000
      6191        70  DOPC      C22            13.5205101572       29.5303508025       12.8762109432  MEMB      42              0.0000000000
      6192        70  DOPC      H2R            13.0123321341       28.5794597043       13.1443201277  MEMB      42              0.0000000000
      6193        70  DOPC      H2S            14.4597202327       29.5066369097       13.4692060073  MEMB      42              0.0000000000
      6194        70  DOPC      C3             13.4013186598       33.3965370893       14.8460742209  MEMB      42              0.0000000000
      6195        70  DOPC      HX             14.4190750805       33.2199456581       15.2551071200  MEMB      42              0.0000000000
      6196        70  DOPC      HY             13.0247988005       34.2891339394       15.3899719750  MEMB      42              0.0000000000
      6197        70  DOPC      O31            13.5695880037       33.7225722373       13.4199125720  MEMB      42              0.0000000000
      6198        70  DOPC      C31            12.6765877309       34.5436695459       12.8628085837  MEMB      42              0.0000000000
      6199        70  DOPC      O32            12.0552639216       35.3710825132       13.5002449330  MEMB      42              0.0000000000
      6200        70  DOPC      C32            12.7189992633       34.4029556861       11.2711604282  MEMB      42              0.0000000000
      6201        70  DOPC      H2X            13.7919468767       34.2369700968       11.0354637646  MEMB      42              0.0000000000
      6202        70  DOPC      H2Y            12.2401115377       33.4603717562       10.9298057941  MEMB      42              0.0000000000
      6203        70  DOPC      C23            13.8637402830       29.6072990419       11.3906871312  MEMB      42              0.0000000000
      6204        70  DOPC      H3R            12.9527824258       29.6217768145       10.7548671339  MEMB      42              0.0000000000
      6205        70  DOPC      H3S            14.4336299118       28.7491735378       10.9745532008  MEMB      42              0.0000000000
      6206        70  DOPC      C24            14.8262694363       30.7096797451       11.0359941513  MEMB      42              0.0000000000
      6207        70  DOPC      H4R            15.7051098090       30.6559473980       11.7135434038  MEMB      42              0.0000000000
      6208        70  DOPC      H4S            14.2785469589       31.6206798146       11.3591037243  MEMB      42              0.0000000000
      6209        70  DOPC      C25            15.1560213433       30.6809719017        9.5598482400  MEMB      42              0.0000000000
      6210        70  DOPC      H5R            15.6469004913       29.7384502349        9.2357931536  MEMB      42              0.0000000000
      6211        70  DOPC      H5S            15.9880348092       31.4056330612        9.4296921401  MEMB      42              0.0000000000
      6212        70  DOPC      C26            14.0536475575       30.9960491869        8.5212443220  MEMB      42              0.0000000000
      6213        70  DOPC      H6R            13.7086709564       31.9783718748        8.9089995210  MEMB      42              0.0000000000
      6214        70  DOPC      H6S            13.2512191419       30.2279111405        8.5410834757  MEMB      42              0.0000000000
      6215        70  DOPC      C27            14.5935526953       30.9153597840        7.0217479378  MEMB      42              0.0000000000
      6216        70  DOPC      H7R            15.1946755001       29.9924435054        6.8761522426  MEMB      42              0.0000000000
      6217        70  DOPC      H7S            15.3253822305       31.7477670828        7.0981978073  MEMB      42              0.0000000000
      6218        70  DOPC      C28            13.5745678786       31.1695049585        5.9033015107  MEMB      42              0.0000000000
      6219        70  DOPC      H8R            13.0552607976       32.1432529042        6.0315829598  MEMB      42              0.0000000000
      6220        70  DOPC      H8S            12.6887091313       30.4998883760        5.8688204721  MEMB      42              0.0000000000
      6221        70  DOPC      C29            14.2106175951       31.1480482337        4.5654122726  MEMB      42              0.0000000000
      6222        70  DOPC      H9R            14.7320108985       32.0763769338        4.2890892863  MEMB      42              0.0000000000
      6223        70  DOPC      C210           14.2198033449       30.1659862350        3.7273244738  MEMB      42              0.0000000000
      6224        70  DOPC      H10R           14.6944141123       30.2800515142        2.7415587228  MEMB      42              0.0000000000
      6225        70  DOPC      C211           13.4881919264       28.8689675851        3.9127571722  MEMB      42              0.0000000000
      6226        70  DOPC      H11R           12.6873135299       28.8502255088        4.6825392635  MEMB      42              0.0000000000
      6227        70  DOPC      H11S           14.2148275610       28.0523956315        4.1115833887  MEMB      42              0.0000000000
      6228        70  DOPC      C212           12.5596009120       28.5585134083        2.7189204728  MEMB      42              0.0000000000
      6229        70  DOPC      H12R           12.0045351258       27.6208391149        2.9356919623  MEMB      42              0.0000000000
      6230        70  DOPC      H12S           13.1892764217       28.2383898217        1.8613946853  MEMB      42              0.0000000000
      6231        70  DOPC      C213           11.5617737331       29.6567091715        2.2549524668  MEMB      42              0.0000000000
      6232        70  DOPC      H13R           12.1299596360       30.5372637126        1.8860223984  MEMB      42              0.0000000000
      6233        70  DOPC      H13S           10.8658836328       29.7904818603        3.1106180500  MEMB      42              0.0000000000
      6234        70  DOPC      C214           10.7004517004       29.1761614177        1.0784838187  MEMB      42              0.0000000000
      6235        70  DOPC      H14R           10.1817673394       28.2136055513        1.2753945255  MEMB      42              0.0000000000
      6236        70  DOPC      H14S           11.4467805480       28.8952093317        0.3049336404  MEMB      42              0.0000000000
      6237        70  DOPC      C215            9.7954494519       30.2648927146        0.4967056303  MEMB      42              0.0000000000
      6238        70  DOPC      H15R           10.2926106561       31.1916912193        0.1386594322  MEMB      42              0.0000000000
      6239        70  DOPC      H15S            9.0775441179       30.5956271330        1.2774411447  MEMB      42              0.0000000000
      6240        70  DOPC      C216            8.9569585876       29.8392952432       -0.7383428236  MEMB      42              0.0000000000
      6241        70  DOPC      H16R            7.9857357568       29.4787944254       -0.3369860013  MEMB      42              0.0000000000
      6242        70  DOPC      H16S            9.2546683203       28.8944363392       -1.2412660556  MEMB      42              0.0000000000
      6243        70  DOPC      C217            8.5566044391       31.0324487870       -1.6368356289  MEMB      42              0.0000000000
      6244        70  DOPC      H17R            9.5557147132       31.4179272149       -1.9326495455  MEMB      42              0.0000000000
      6245        70  DOPC      H17S            7.9560607562       31.8383784118       -1.1633947649  MEMB      42              0.0000000000
      6246        70  DOPC      C218            7.8309037750       30.5400351250       -2.9327455090  MEMB      42              0.0000000000
      6247        70  DOPC      H18R            7.3931099649       31.4290955695       -3.4349699321  MEMB      42              0.0000000000
      6248        70  DOPC      H18S            7.0961100248       29.7996349832       -2.5503758868  MEMB      42              0.0000000000
      6249        70  DOPC      H18T            8.6167365754       30.0933203777       -3.5786815128  MEMB      42              0.0000000000
      6250        70  DOPC      C33            12.0043234636       35.5584637904       10.5240176431  MEMB      42              0.0000000000
      6251        70  DOPC      H3X            12.6178818533       35.4943578289        9.6000277955  MEMB      42              0.0000000000
      6252        70  DOPC      H3Y            12.3432758407       36.4842640713       11.0361955250  MEMB      42              0.0000000000
      6253        70  DOPC      C34            10.4826766694       35.4999037001       10.3395732235  MEMB      42              0.0000000000
      6254        70  DOPC      H4X            10.1939844415       36.5682798987       10.2418481884  MEMB      42              0.0000000000
      6255        70  DOPC      H4Y             9.9431891340       35.2282100803       11.2720199623  MEMB      42              0.0000000000
      6256        70  DOPC      C35             9.9533254928       34.6176398465        9.2004881316  MEMB      42              0.0000000000
      6257        70  DOPC      H5X             8.9583008482       34.2367621307        9.5154157035  MEMB      42              0.0000000000
      6258        70  DOPC      H5Y            10.5945836295       33.7282015728        9.0215792157  MEMB      42              0.0000000000
      6259        70  DOPC      C36             9.8400238128       35.3526608394        7.8627659215  MEMB      42              0.0000000000
      6260        70  DOPC      H6X             9.1250058385       36.2019131459        7.9056580884  MEMB      42              0.0000000000
      6261        70  DOPC      H6Y            10.8341271071       35.7275249885        7.5378711218  MEMB      42              0.0000000000
      6262        70  DOPC      C37             9.2630092502       34.4222207201        6.7452720166  MEMB      42              0.0000000000
      6263        70  DOPC      H7X             8.4104115680       33.8537147093        7.1744571960  MEMB      42              0.0000000000
      6264        70  DOPC      H7Y             8.9382112864       35.0819238181        5.9124339893  MEMB      42              0.0000000000
      6265        70  DOPC      C38            10.3028433066       33.4137940475        6.2538819367  MEMB      42              0.0000000000
      6266        70  DOPC      H8X            10.4956692261       32.6275051721        7.0147298089  MEMB      42              0.0000000000
      6267        70  DOPC      H8Y            11.2649148829       33.7774227816        5.8337469140  MEMB      42              0.0000000000
      6268        70  DOPC      C39             9.7172114209       32.5482200351        5.1610762407  MEMB      42              0.0000000000
      6269        70  DOPC      H9X             9.1343759575       31.6780812917        5.4974695426  MEMB      42              0.0000000000
      6270        70  DOPC      C310            9.7662604952       32.7277585253        3.8533794814  MEMB      42              0.0000000000
      6271        70  DOPC      H10X            9.3097450248       31.9201837943        3.2622648669  MEMB      42              0.0000000000
      6272        70  DOPC      C311           10.4334488159       33.8479938501        3.0504690243  MEMB      42              0.0000000000
      6273        70  DOPC      H11X           10.7458476701       34.7040606014        3.6859820889  MEMB      42              0.0000000000
      6274        70  DOPC      H11Y            9.7172210986       34.1534529620        2.2579814383  MEMB      42              0.0000000000
      6275        70  DOPC      C312           11.7921283250       33.5192808258        2.3904774444  MEMB      42              0.0000000000
      6276        70  DOPC      H12X           11.6998682803       32.7077350769        1.6373487983  MEMB      42              0.0000000000
      6277        70  DOPC      H12Y           12.5473794803       33.2493980915        3.1592960172  MEMB      42              0.0000000000
      6278        70  DOPC      C313           12.3606456026       34.8320391134        1.7852932026  MEMB      42              0.0000000000
      6279        70  DOPC      H13X           11.5245000268       35.3537091348        1.2724163010  MEMB      42              0.0000000000
      6280        70  DOPC      H13Y           12.4967272416       35.5697498210        2.6047966214  MEMB      42              0.0000000000
      6281        70  DOPC      C314           13.5214423697       34.5606923166        0.8560532841  MEMB      42              0.0000000000
      6282        70  DOPC      H14X           13.1777392884       34.1370945499       -0.1118072343  MEMB      42              0.0000000000
      6283        70  DOPC      H14Y           13.9736227770       35.5085980142        0.4936592604  MEMB      42              0.0000000000
      6284        70  DOPC      C315           14.7157050443       33.8030490024        1.4284202727  MEMB      42              0.0000000000
      6285        70  DOPC      H15X           14.3668472394       32.7486681896        1.3984152251  MEMB      42              0.0000000000
      6286        70  DOPC      H15Y           14.9245378754       34.1088110978        2.4759017086  MEMB      42              0.0000000000
      6287        70  DOPC      C316           16.0055262319       33.9851243562        0.6147275670  MEMB      42              0.0000000000
      6288        70  DOPC      H16X           16.3611500389       32.9978062406        0.2499597015  MEMB      42              0.0000000000
      6289        70  DOPC      H16Y           15.8397922811       34.5930685057       -0.3002885149  MEMB      42              0.0000000000
      6290        70  DOPC      C317           17.1679304778       34.7490689038        1.4099851209  MEMB      42              0.0000000000
      6291        70  DOPC      H17X           17.4056839504       34.2068362896        2.3500801285  MEMB      42              0.0000000000
      6292        70  DOPC      H17Y           18.1747033447       34.8154975661        0.9448853935  MEMB      42              0.0000000000
      6293        70  DOPC      C318           16.6942051392       36.1204272350        1.6422188079  MEMB      42              0.0000000000
      6294        70  DOPC      H18X           16.4810895685       36.5897488763        0.6580243019  MEMB      42              0.0000000000
      6295        70  DOPC      H18Y           15.8197740358       36.1183130808        2.3275559934  MEMB      42              0.0000000000
      6296        70  DOPC      H18Z           17.5045824645       36.7300483495        2.0960595353  MEMB      42              0.0000000000
      6297        71  DOPC      N              24.0917316125      -18.5935055076       16.9299712288  MEMB      43              0.0000000000
      6298        71  DOPC      C12            25.2979425510      -17.8833644060       17.4890552183  MEMB      43              0.0000000000
      6299        71  DOPC      H12A           25.0370531074      -16.8500423010       17.6639323700  MEMB      43              0.0000000000
      6300        71  DOPC      H12B           26.1231087003      -18.0066335850       16.8032670645  MEMB      43              0.0000000000
      6301        71  DOPC      C13            23.8202176912      -17.9147721815       15.5192073738  MEMB      43              0.0000000000
      6302        71  DOPC      H13A           22.8732203605      -18.1854075263       15.0760905766  MEMB      43              0.0000000000
      6303        71  DOPC      H13B           23.7026868934      -16.8543369666       15.6867296730  MEMB      43              0.0000000000
      6304        71  DOPC      H13C           24.6017649636      -18.1172021293       14.8018469616  MEMB      43              0.0000000000
      6305        71  DOPC      C14            22.8686973748      -18.3264848395       17.8173345567  MEMB      43              0.0000000000
      6306        71  DOPC      H14A           22.6868923701      -17.2639148734       17.7518230308  MEMB      43              0.0000000000
      6307        71  DOPC      H14B           22.0376236591      -18.7848232480       17.3019295087  MEMB      43              0.0000000000
      6308        71  DOPC      H14C           23.1116291230      -18.6919531410       18.8041562694  MEMB      43              0.0000000000
      6309        71  DOPC      C15            24.1837005985      -20.0970074117       16.7452313801  MEMB      43              0.0000000000
      6310        71  DOPC      H15A           25.0206368965      -20.2161985177       16.0731218046  MEMB      43              0.0000000000
      6311        71  DOPC      H15B           23.3077038742      -20.5736775390       16.3307251208  MEMB      43              0.0000000000
      6312        71  DOPC      H15C           24.3265070506      -20.5129177597       17.7316516109  MEMB      43              0.0000000000
      6313        71  DOPC      C11            25.9105260286      -18.5054304136       18.7509022130  MEMB      43              0.0000000000
      6314        71  DOPC      H11A           26.3879968784      -19.4828752114       18.5251937598  MEMB      43              0.0000000000
      6315        71  DOPC      H11B           26.7079563414      -17.8197719979       19.1090898676  MEMB      43              0.0000000000
      6316        71  DOPC      P              25.3787942307      -19.3059395468       21.1876857921  MEMB      43              0.0000000000
      6317        71  DOPC      O13            24.2663634014      -19.2536842075       22.1794200437  MEMB      43              0.0000000000
      6318        71  DOPC      O14            26.5560326788      -18.5451520273       21.6041765500  MEMB      43              0.0000000000
      6319        71  DOPC      O12            24.9011763240      -18.7325158195       19.8058599026  MEMB      43              0.0000000000
      6320        71  DOPC      O11            25.7407783085      -20.8551279425       20.9711557073  MEMB      43              0.0000000000
      6321        71  DOPC      C1             24.8520761288      -21.7031213297       20.2605157818  MEMB      43              0.0000000000
      6322        71  DOPC      HA             24.0378846046      -21.1712129878       19.7234062671  MEMB      43              0.0000000000
      6323        71  DOPC      HB             24.3168403589      -22.2848510095       21.0411785016  MEMB      43              0.0000000000
      6324        71  DOPC      C2             25.6971543715      -22.7101809795       19.4596407832  MEMB      43              0.0000000000
      6325        71  DOPC      HS             26.4134256427      -23.1844524735       20.1641569446  MEMB      43              0.0000000000
      6326        71  DOPC      O21            26.3698444591      -21.9400486411       18.3847938824  MEMB      43              0.0000000000
      6327        71  DOPC      C21            27.5344739869      -22.5151006668       18.0378572319  MEMB      43              0.0000000000
      6328        71  DOPC      O22            28.0354824559      -23.4323108472       18.6047150226  MEMB      43              0.0000000000
      6329        71  DOPC      C22            28.1940954466      -21.8075057410       16.8405594545  MEMB      43              0.0000000000
      6330        71  DOPC      H2R            29.2978780128      -21.7562302541       16.9561249411  MEMB      43              0.0000000000
      6331        71  DOPC      H2S            27.7144039160      -20.8466834347       16.5558879395  MEMB      43              0.0000000000
      6332        71  DOPC      C3             24.8834636759      -23.8316613622       18.8462599711  MEMB      43              0.0000000000
      6333        71  DOPC      HX             24.3572624437      -24.4031322693       19.6405229381  MEMB      43              0.0000000000
      6334        71  DOPC      HY             25.6207522775      -24.4557256990       18.2973794144  MEMB      43              0.0000000000
      6335        71  DOPC      O31            23.9522455515      -23.1781733808       17.9289120164  MEMB      43              0.0000000000
      6336        71  DOPC      C31            23.6968935596      -23.9116405543       16.8508631719  MEMB      43              0.0000000000
      6337        71  DOPC      O32            24.1870721524      -24.9949335065       16.6209010324  MEMB      43              0.0000000000
      6338        71  DOPC      C32            22.5720538580      -23.2178458860       16.0316774110  MEMB      43              0.0000000000
      6339        71  DOPC      H2X            21.6465108306      -23.8254156906       16.1241461591  MEMB      43              0.0000000000
      6340        71  DOPC      H2Y            22.3810444064      -22.2003370998       16.4348056344  MEMB      43              0.0000000000
      6341        71  DOPC      C23            28.0412304582      -22.7770774407       15.6450165983  MEMB      43              0.0000000000
      6342        71  DOPC      H3R            28.3145182647      -23.8431859744       15.7968294755  MEMB      43              0.0000000000
      6343        71  DOPC      H3S            28.7999899509      -22.3942152818       14.9294600137  MEMB      43              0.0000000000
      6344        71  DOPC      C24            26.6979449062      -22.6861184596       14.8681418898  MEMB      43              0.0000000000
      6345        71  DOPC      H4R            26.2319429246      -21.6786279925       14.8220300471  MEMB      43              0.0000000000
      6346        71  DOPC      H4S            26.0191800522      -23.4210612216       15.3513172950  MEMB      43              0.0000000000
      6347        71  DOPC      C25            26.8475396629      -23.2149666846       13.4128503836  MEMB      43              0.0000000000
      6348        71  DOPC      H5R            25.8418323612      -23.5412949903       13.0716996154  MEMB      43              0.0000000000
      6349        71  DOPC      H5S            27.5635664160      -24.0641971453       13.3920129891  MEMB      43              0.0000000000
      6350        71  DOPC      C26            27.5138212524      -22.2084133583       12.4917175191  MEMB      43              0.0000000000
      6351        71  DOPC      H6R            28.5921828603      -21.9860991094       12.6401537803  MEMB      43              0.0000000000
      6352        71  DOPC      H6S            27.0035139896      -21.2300682921       12.6211342041  MEMB      43              0.0000000000
      6353        71  DOPC      C27            27.1961936789      -22.4645416116       10.9458887228  MEMB      43              0.0000000000
      6354        71  DOPC      H7R            26.0931269364      -22.5377238885       10.8353944751  MEMB      43              0.0000000000
      6355        71  DOPC      H7S            27.6767939460      -23.4137959671       10.6261058236  MEMB      43              0.0000000000
      6356        71  DOPC      C28            27.7633900188      -21.2976690438       10.0451475735  MEMB      43              0.0000000000
      6357        71  DOPC      H8R            27.9646670446      -21.6714477241        9.0184539755  MEMB      43              0.0000000000
      6358        71  DOPC      H8S            28.7093821702      -20.9492475533       10.5120754528  MEMB      43              0.0000000000
      6359        71  DOPC      C29            26.7468890037      -20.1513808675       10.0853849615  MEMB      43              0.0000000000
      6360        71  DOPC      H9R            26.8789525347      -19.4324370696       10.9073820914  MEMB      43              0.0000000000
      6361        71  DOPC      C210           25.7866269362      -19.9289328788        9.2688988928  MEMB      43              0.0000000000
      6362        71  DOPC      H10R           25.2173846816      -19.0197834678        9.5126429188  MEMB      43              0.0000000000
      6363        71  DOPC      C211           25.4247306261      -20.7799120247        8.0999148864  MEMB      43              0.0000000000
      6364        71  DOPC      H11R           24.3408472987      -20.9572872734        7.9324143476  MEMB      43              0.0000000000
      6365        71  DOPC      H11S           25.8313047144      -21.8137011909        8.1171893034  MEMB      43              0.0000000000
      6366        71  DOPC      C212           25.9662722709      -20.1005439985        6.7470762266  MEMB      43              0.0000000000
      6367        71  DOPC      H12R           27.0354446539      -19.8087289090        6.8247652473  MEMB      43              0.0000000000
      6368        71  DOPC      H12S           25.3249803008      -19.2022166160        6.6202954009  MEMB      43              0.0000000000
      6369        71  DOPC      C213           25.8101511220      -21.0823565929        5.6044879278  MEMB      43              0.0000000000
      6370        71  DOPC      H13R           24.7728416714      -21.4696591238        5.6956285247  MEMB      43              0.0000000000
      6371        71  DOPC      H13S           26.5307592575      -21.9027278994        5.8095149549  MEMB      43              0.0000000000
      6372        71  DOPC      C214           26.1033473177      -20.5832504509        4.1716901862  MEMB      43              0.0000000000
      6373        71  DOPC      H14R           27.0541516216      -20.0192676120        4.0611692340  MEMB      43              0.0000000000
      6374        71  DOPC      H14S           25.2817038103      -19.9484644852        3.7763808387  MEMB      43              0.0000000000
      6375        71  DOPC      C215           26.1307219806      -21.7597969879        3.2162948462  MEMB      43              0.0000000000
      6376        71  DOPC      H15R           26.8486853168      -22.5264853257        3.5782871898  MEMB      43              0.0000000000
      6377        71  DOPC      H15S           26.4880670369      -21.3523120496        2.2464595554  MEMB      43              0.0000000000
      6378        71  DOPC      C216           24.7689259638      -22.5198406317        2.9178946524  MEMB      43              0.0000000000
      6379        71  DOPC      H16R           24.7102608577      -22.4694792097        1.8095881913  MEMB      43              0.0000000000
      6380        71  DOPC      H16S           23.8724646568      -21.9691955693        3.2749206401  MEMB      43              0.0000000000
      6381        71  DOPC      C217           24.7062007203      -24.0110733134        3.3878295681  MEMB      43              0.0000000000
      6382        71  DOPC      H17R           25.0428882590      -24.0886504904        4.4437376261  MEMB      43              0.0000000000
      6383        71  DOPC      H17S           25.5687969177      -24.6020362396        3.0123129430  MEMB      43              0.0000000000
      6384        71  DOPC      C218           23.3038468381      -24.6819510751        3.1745498881  MEMB      43              0.0000000000
      6385        71  DOPC      H18R           22.6732592332      -24.0302546194        3.8163997706  MEMB      43              0.0000000000
      6386        71  DOPC      H18S           23.1788396548      -25.7050216106        3.5893041514  MEMB      43              0.0000000000
      6387        71  DOPC      H18T           22.9318898047      -24.5565654372        2.1352010686  MEMB      43              0.0000000000
      6388        71  DOPC      C33            23.1398458633      -23.0439676631       14.5900321820  MEMB      43              0.0000000000
      6389        71  DOPC      H3X            23.3495196421      -24.0709417410       14.2216821237  MEMB      43              0.0000000000
      6390        71  DOPC      H3Y            24.0558071153      -22.4157704767       14.6165728151  MEMB      43              0.0000000000
      6391        71  DOPC      C34            22.1589806543      -22.1577459922       13.6915462343  MEMB      43              0.0000000000
      6392        71  DOPC      H4X            21.8517515404      -21.1482669769       14.0392288614  MEMB      43              0.0000000000
      6393        71  DOPC      H4Y            21.2269687415      -22.7530058869       13.5850542163  MEMB      43              0.0000000000
      6394        71  DOPC      C35            22.7402119130      -22.0827148172       12.2205063171  MEMB      43              0.0000000000
      6395        71  DOPC      H5X            23.0896907019      -23.1306073897       12.1017350171  MEMB      43              0.0000000000
      6396        71  DOPC      H5Y            23.6987101185      -21.5247134535       12.1554181647  MEMB      43              0.0000000000
      6397        71  DOPC      C36            21.7446078715      -21.5244902601       11.1832287890  MEMB      43              0.0000000000
      6398        71  DOPC      H6X            22.0874967141      -21.8020124146       10.1635572071  MEMB      43              0.0000000000
      6399        71  DOPC      H6Y            20.7167042303      -21.9296141449       11.2998899083  MEMB      43              0.0000000000
      6400        71  DOPC      C37            21.5023964734      -20.0423570604       11.1258987587  MEMB      43              0.0000000000
      6401        71  DOPC      H7X            21.3929429088      -19.5740989184       12.1274355890  MEMB      43              0.0000000000
      6402        71  DOPC      H7Y            22.4447178314      -19.4928674909       10.9151552739  MEMB      43              0.0000000000
      6403        71  DOPC      C38            20.3988323180      -19.6503800789       10.0810174995  MEMB      43              0.0000000000
      6404        71  DOPC      H8X            19.5444672699      -20.3039949508       10.3588104028  MEMB      43              0.0000000000
      6405        71  DOPC      H8Y            20.7963211537      -19.9333048678        9.0828808621  MEMB      43              0.0000000000
      6406        71  DOPC      C39            19.9091805008      -18.2589061403        9.9031703013  MEMB      43              0.0000000000
      6407        71  DOPC      H9X            18.8903060401      -18.0489489179       10.2606781210  MEMB      43              0.0000000000
      6408        71  DOPC      C310           20.6796607297      -17.2793080670        9.3805046893  MEMB      43              0.0000000000
      6409        71  DOPC      H10X           20.2064555403      -16.3273246204        9.0980083472  MEMB      43              0.0000000000
      6410        71  DOPC      C311           22.0924013437      -17.3290061193        8.8638064499  MEMB      43              0.0000000000
      6411        71  DOPC      H11X           22.5357870658      -18.3396301192        8.9917498181  MEMB      43              0.0000000000
      6412        71  DOPC      H11Y           22.7646947134      -16.6878975749        9.4731688212  MEMB      43              0.0000000000
      6413        71  DOPC      C312           22.3192187685      -17.0989662292        7.3660876702  MEMB      43              0.0000000000
      6414        71  DOPC      H12X           23.4180142948      -17.1769727383        7.2215750319  MEMB      43              0.0000000000
      6415        71  DOPC      H12Y           22.1072031964      -16.0539600331        7.0541062372  MEMB      43              0.0000000000
      6416        71  DOPC      C313           21.5033335771      -18.0046106337        6.4859595536  MEMB      43              0.0000000000
      6417        71  DOPC      H13X           21.7368046822      -19.0737407623        6.6777208252  MEMB      43              0.0000000000
      6418        71  DOPC      H13Y           20.4436132049      -17.8026987652        6.7515635727  MEMB      43              0.0000000000
      6419        71  DOPC      C314           21.6185299990      -17.6840726548        4.9630973650  MEMB      43              0.0000000000
      6420        71  DOPC      H14X           21.1494113427      -16.6815326155        4.8673755696  MEMB      43              0.0000000000
      6421        71  DOPC      H14Y           22.6763196161      -17.5127874724        4.6697314015  MEMB      43              0.0000000000
      6422        71  DOPC      C315           20.9502516045      -18.6868569739        4.0815052463  MEMB      43              0.0000000000
      6423        71  DOPC      H15X           19.8927040949      -18.7829697306        4.4081193082  MEMB      43              0.0000000000
      6424        71  DOPC      H15Y           21.4877407200      -19.6433836381        4.2560988805  MEMB      43              0.0000000000
      6425        71  DOPC      C316           21.1460520616      -18.3311345413        2.5025343880  MEMB      43              0.0000000000
      6426        71  DOPC      H16X           20.8603242945      -17.2761905052        2.3031024327  MEMB      43              0.0000000000
      6427        71  DOPC      H16Y           22.2298893616      -18.3421259090        2.2586149309  MEMB      43              0.0000000000
      6428        71  DOPC      C317           20.4303707307      -19.2441965421        1.5356755856  MEMB      43              0.0000000000
      6429        71  DOPC      H17X           19.3457301040      -19.2856049364        1.7726589297  MEMB      43              0.0000000000
      6430        71  DOPC      H17Y           20.4768162637      -18.8322574877        0.5049127081  MEMB      43              0.0000000000
      6431        71  DOPC      C318           20.9780396686      -20.6655594921        1.5328756921  MEMB      43              0.0000000000
      6432        71  DOPC      H18X           22.0713518196      -20.7492059547        1.3540099464  MEMB      43              0.0000000000
      6433        71  DOPC      H18Y           20.8662099057      -21.1421180776        2.5302269671  MEMB      43              0.0000000000
      6434        71  DOPC      H18Z           20.3658772210      -21.2564183474        0.8184084009  MEMB      43              0.0000000000
      6435        72  DOPC      N             -18.7681863995       27.2766195520       18.7581599061  MEMB      44              0.0000000000
      6436        72  DOPC      C12           -18.7839090009       28.6151747201       18.1357519703  MEMB      44              0.0000000000
      6437        72  DOPC      H12A          -19.2262901651       29.3167532238       18.8274791594  MEMB      44              0.0000000000
      6438        72  DOPC      H12B          -19.4918335810       28.5771218821       17.3210158985  MEMB      44              0.0000000000
      6439        72  DOPC      C13           -18.1162193274       27.2013818202       20.1500171310  MEMB      44              0.0000000000
      6440        72  DOPC      H13A          -17.9064877137       26.1930420477       20.4750760544  MEMB      44              0.0000000000
      6441        72  DOPC      H13B          -17.1564920960       27.6962818333       20.1699587431  MEMB      44              0.0000000000
      6442        72  DOPC      H13C          -18.7876654615       27.6876883933       20.8421630719  MEMB      44              0.0000000000
      6443        72  DOPC      C14           -18.0506948431       26.2791057121       17.9642489118  MEMB      44              0.0000000000
      6444        72  DOPC      H14A          -18.1546781991       25.3101434138       18.4297588865  MEMB      44              0.0000000000
      6445        72  DOPC      H14B          -18.4160138366       26.2632435808       16.9480351555  MEMB      44              0.0000000000
      6446        72  DOPC      H14C          -16.9800026124       26.4140595847       17.9217560437  MEMB      44              0.0000000000
      6447        72  DOPC      C15           -20.2365419610       26.7888123757       19.0415010630  MEMB      44              0.0000000000
      6448        72  DOPC      H15A          -20.2612153057       25.8724562411       19.6125373341  MEMB      44              0.0000000000
      6449        72  DOPC      H15B          -20.8017971102       26.5774099978       18.1458472761  MEMB      44              0.0000000000
      6450        72  DOPC      H15C          -20.7591751267       27.6021727627       19.5228528573  MEMB      44              0.0000000000
      6451        72  DOPC      C11           -17.4683707401       29.2973809122       17.5827828883  MEMB      44              0.0000000000
      6452        72  DOPC      H11A          -17.1516863358       28.6522333640       16.7355423461  MEMB      44              0.0000000000
      6453        72  DOPC      H11B          -17.7218402448       30.2837528184       17.1387730514  MEMB      44              0.0000000000
      6454        72  DOPC      P             -16.4562838742       30.5565019032       19.5512272747  MEMB      44              0.0000000000
      6455        72  DOPC      O13           -15.0373975873       30.7910452610       19.9845113149  MEMB      44              0.0000000000
      6456        72  DOPC      O14           -17.4733454937       30.2768174690       20.6096122863  MEMB      44              0.0000000000
      6457        72  DOPC      O12           -16.4594214698       29.3246473846       18.5474152454  MEMB      44              0.0000000000
      6458        72  DOPC      O11           -16.9261188004       31.7967904928       18.6747719696  MEMB      44              0.0000000000
      6459        72  DOPC      C1            -16.6864525554       33.0893771948       19.2836493635  MEMB      44              0.0000000000
      6460        72  DOPC      HA            -16.0725619869       33.0802633135       20.2095955720  MEMB      44              0.0000000000
      6461        72  DOPC      HB            -17.6269365372       33.5677826688       19.6314126868  MEMB      44              0.0000000000
      6462        72  DOPC      C2            -16.0582632290       34.0991299994       18.2556507482  MEMB      44              0.0000000000
      6463        72  DOPC      HS            -16.1805058454       35.0937812960       18.7352825535  MEMB      44              0.0000000000
      6464        72  DOPC      O21           -16.7418993052       34.0717795959       16.9451889029  MEMB      44              0.0000000000
      6465        72  DOPC      C21           -18.0365553974       34.0750352104       16.7807326165  MEMB      44              0.0000000000
      6466        72  DOPC      O22           -18.9146929873       34.1710833436       17.6139324296  MEMB      44              0.0000000000
      6467        72  DOPC      C22           -18.2917356814       34.0802468569       15.2422839385  MEMB      44              0.0000000000
      6468        72  DOPC      H2R           -17.5558557988       34.8405169151       14.9034758447  MEMB      44              0.0000000000
      6469        72  DOPC      H2S           -19.3368428435       34.3367177537       14.9660674983  MEMB      44              0.0000000000
      6470        72  DOPC      C3            -14.6023270959       33.8604825952       17.8679754209  MEMB      44              0.0000000000
      6471        72  DOPC      HX            -14.1073768177       33.9770338580       18.8557813940  MEMB      44              0.0000000000
      6472        72  DOPC      HY            -14.2604114076       34.6405892835       17.1546397355  MEMB      44              0.0000000000
      6473        72  DOPC      O31           -14.4001239798       32.5403810495       17.3418034277  MEMB      44              0.0000000000
      6474        72  DOPC      C31           -13.4888330779       32.1903183998       16.3750900247  MEMB      44              0.0000000000
      6475        72  DOPC      O32           -12.7715105240       32.9511456152       15.7845058707  MEMB      44              0.0000000000
      6476        72  DOPC      C32           -13.5584351527       30.6874936123       16.2190810861  MEMB      44              0.0000000000
      6477        72  DOPC      H2X           -13.2607380064       30.2378873506       17.1904469614  MEMB      44              0.0000000000
      6478        72  DOPC      H2Y           -14.6266252825       30.3962866417       16.1269429626  MEMB      44              0.0000000000
      6479        72  DOPC      C23           -18.0668464505       32.7082995895       14.5421009394  MEMB      44              0.0000000000
      6480        72  DOPC      H3R           -17.0612975654       32.2454096550       14.6365744381  MEMB      44              0.0000000000
      6481        72  DOPC      H3S           -18.0325588060       33.0112231920       13.4737461845  MEMB      44              0.0000000000
      6482        72  DOPC      C24           -19.1718782815       31.7144690879       14.8284231526  MEMB      44              0.0000000000
      6483        72  DOPC      H4R           -20.1104770796       32.1116610143       14.3861660434  MEMB      44              0.0000000000
      6484        72  DOPC      H4S           -19.3373735787       31.4858031342       15.9029667380  MEMB      44              0.0000000000
      6485        72  DOPC      C25           -18.9160213960       30.4316769902       14.0631132474  MEMB      44              0.0000000000
      6486        72  DOPC      H5R           -19.8830488705       29.9175607136       13.8763964269  MEMB      44              0.0000000000
      6487        72  DOPC      H5S           -18.2671838695       29.7314490484       14.6314543807  MEMB      44              0.0000000000
      6488        72  DOPC      C26           -18.3648541295       30.5442579490       12.5886165759  MEMB      44              0.0000000000
      6489        72  DOPC      H6R           -17.2652589036       30.6787836005       12.6729617418  MEMB      44              0.0000000000
      6490        72  DOPC      H6S           -18.7055305795       31.4444150811       12.0336592724  MEMB      44              0.0000000000
      6491        72  DOPC      C27           -18.7231583399       29.2752816959       11.8270312166  MEMB      44              0.0000000000
      6492        72  DOPC      H7R           -19.8173480901       29.0897063756       11.7757356844  MEMB      44              0.0000000000
      6493        72  DOPC      H7S           -18.3877569775       28.3556342069       12.3524596256  MEMB      44              0.0000000000
      6494        72  DOPC      C28           -18.1283594859       29.1611699620       10.3681115209  MEMB      44              0.0000000000
      6495        72  DOPC      H8R           -18.2184602776       28.1227050242        9.9836726526  MEMB      44              0.0000000000
      6496        72  DOPC      H8S           -17.0437570553       29.3933774641       10.3045635633  MEMB      44              0.0000000000
      6497        72  DOPC      C29           -18.8980832284       30.1130260174        9.4978323646  MEMB      44              0.0000000000
      6498        72  DOPC      H9R           -19.9159308762       29.7587296591        9.2776943269  MEMB      44              0.0000000000
      6499        72  DOPC      C210          -18.5048927058       31.3198134129        8.9515593425  MEMB      44              0.0000000000
      6500        72  DOPC      H10R          -19.2765397370       31.8819029176        8.4051021885  MEMB      44              0.0000000000
      6501        72  DOPC      C211          -17.0886113789       31.8764262512        9.1275819549  MEMB      44              0.0000000000
      6502        72  DOPC      H11R          -16.3728645823       31.1263361611        8.7283424917  MEMB      44              0.0000000000
      6503        72  DOPC      H11S          -16.8384688263       31.8993369137       10.2098129616  MEMB      44              0.0000000000
      6504        72  DOPC      C212          -16.7408147475       33.1861720890        8.3920265510  MEMB      44              0.0000000000
      6505        72  DOPC      H12R          -15.9304023653       33.4598598150        9.1010029419  MEMB      44              0.0000000000
      6506        72  DOPC      H12S          -17.5749551571       33.9190387156        8.4299357557  MEMB      44              0.0000000000
      6507        72  DOPC      C213          -16.2767878115       33.0401127938        6.8930715014  MEMB      44              0.0000000000
      6508        72  DOPC      H13R          -16.2498351193       34.0332054940        6.3957167817  MEMB      44              0.0000000000
      6509        72  DOPC      H13S          -17.0845571308       32.4314158226        6.4333785347  MEMB      44              0.0000000000
      6510        72  DOPC      C214          -14.9096804392       32.3256136643        6.7197642180  MEMB      44              0.0000000000
      6511        72  DOPC      H14R          -14.8517162280       31.4606978229        7.4146611805  MEMB      44              0.0000000000
      6512        72  DOPC      H14S          -14.1763479832       33.0238491287        7.1769421510  MEMB      44              0.0000000000
      6513        72  DOPC      C215          -14.5981119935       31.9114569636        5.2752329008  MEMB      44              0.0000000000
      6514        72  DOPC      H15R          -14.2095658300       32.8899416695        4.9203795722  MEMB      44              0.0000000000
      6515        72  DOPC      H15S          -15.5641090400       31.5919820867        4.8290194178  MEMB      44              0.0000000000
      6516        72  DOPC      C216          -13.5109879762       30.8196669955        5.1616233751  MEMB      44              0.0000000000
      6517        72  DOPC      H16R          -13.3281009413       30.5715254522        4.0942438660  MEMB      44              0.0000000000
      6518        72  DOPC      H16S          -13.7315572529       29.8535299147        5.6638677094  MEMB      44              0.0000000000
      6519        72  DOPC      C217          -12.1268275611       31.3675493316        5.5918925281  MEMB      44              0.0000000000
      6520        72  DOPC      H17R          -11.6701075709       30.3875677249        5.8475561685  MEMB      44              0.0000000000
      6521        72  DOPC      H17S          -12.1293935875       31.8781562134        6.5786018514  MEMB      44              0.0000000000
      6522        72  DOPC      C218          -11.3896930042       32.1834779375        4.5003443432  MEMB      44              0.0000000000
      6523        72  DOPC      H18R          -11.9970841765       33.0961168115        4.3201014623  MEMB      44              0.0000000000
      6524        72  DOPC      H18S          -11.3443899161       31.6031929652        3.5540153535  MEMB      44              0.0000000000
      6525        72  DOPC      H18T          -10.3389574952       32.4235563077        4.7698593973  MEMB      44              0.0000000000
      6526        72  DOPC      C33           -12.9173620879       30.0693277671       14.9942886097  MEMB      44              0.0000000000
      6527        72  DOPC      H3X           -11.8746313056       30.4401207055       14.8965874293  MEMB      44              0.0000000000
      6528        72  DOPC      H3Y           -13.4154540115       30.6459356497       14.1857415492  MEMB      44              0.0000000000
      6529        72  DOPC      C34           -13.1232766202       28.5094827233       15.0798494782  MEMB      44              0.0000000000
      6530        72  DOPC      H4X           -14.1418622546       28.2215937559       15.4173768707  MEMB      44              0.0000000000
      6531        72  DOPC      H4Y           -12.3901629797       28.1915877171       15.8517354548  MEMB      44              0.0000000000
      6532        72  DOPC      C35           -12.6034075302       27.8168667224       13.8452588225  MEMB      44              0.0000000000
      6533        72  DOPC      H5X           -11.9189226771       27.0190311186       14.2047863391  MEMB      44              0.0000000000
      6534        72  DOPC      H5Y           -12.0010268739       28.4319831260       13.1430547066  MEMB      44              0.0000000000
      6535        72  DOPC      C36           -13.6747096570       27.1817956356       12.8679673254  MEMB      44              0.0000000000
      6536        72  DOPC      H6X           -13.1381193130       26.6599028047       12.0469805706  MEMB      44              0.0000000000
      6537        72  DOPC      H6Y           -14.3027520016       26.5062645314       13.4872746058  MEMB      44              0.0000000000
      6538        72  DOPC      C37           -14.6309973418       28.0699511645       12.1378295772  MEMB      44              0.0000000000
      6539        72  DOPC      H7X           -15.3941370758       27.3399764476       11.7927562722  MEMB      44              0.0000000000
      6540        72  DOPC      H7Y           -15.2786742270       28.5655448738       12.8922978412  MEMB      44              0.0000000000
      6541        72  DOPC      C38           -14.0642742144       28.9046477953       11.0105558133  MEMB      44              0.0000000000
      6542        72  DOPC      H8X           -13.3539200490       29.6269043377       11.4666952720  MEMB      44              0.0000000000
      6543        72  DOPC      H8Y           -14.9490427411       29.4393649519       10.6036371187  MEMB      44              0.0000000000
      6544        72  DOPC      C39           -13.4280313234       28.0555403968        9.9501661449  MEMB      44              0.0000000000
      6545        72  DOPC      H9X           -12.3502017871       28.0007931981       10.1629729410  MEMB      44              0.0000000000
      6546        72  DOPC      C310          -14.0161392681       27.2500692074        8.9876877184  MEMB      44              0.0000000000
      6547        72  DOPC      H10X          -13.4920356993       26.6566504861        8.2240323163  MEMB      44              0.0000000000
      6548        72  DOPC      C311          -15.4428131429       27.0875676451        8.8363624888  MEMB      44              0.0000000000
      6549        72  DOPC      H11X          -16.0185274599       27.8628329941        9.3857593260  MEMB      44              0.0000000000
      6550        72  DOPC      H11Y          -15.7771252291       26.2059200996        9.4239460240  MEMB      44              0.0000000000
      6551        72  DOPC      C312          -15.8451459860       26.9223523315        7.3426802810  MEMB      44              0.0000000000
      6552        72  DOPC      H12X          -15.3436989323       25.9817861877        7.0292997595  MEMB      44              0.0000000000
      6553        72  DOPC      H12Y          -15.3801514203       27.7679607520        6.7921828538  MEMB      44              0.0000000000
      6554        72  DOPC      C313          -17.3043547929       26.7439578038        6.9573497008  MEMB      44              0.0000000000
      6555        72  DOPC      H13X          -17.6354175477       25.7132967112        7.2072617617  MEMB      44              0.0000000000
      6556        72  DOPC      H13Y          -17.9237371712       27.4239462542        7.5804893254  MEMB      44              0.0000000000
      6557        72  DOPC      C314          -17.7293430755       27.0363235489        5.5402169580  MEMB      44              0.0000000000
      6558        72  DOPC      H14X          -17.3404796555       26.1839736748        4.9430524629  MEMB      44              0.0000000000
      6559        72  DOPC      H14Y          -18.8254968596       26.9381134295        5.3881542878  MEMB      44              0.0000000000
      6560        72  DOPC      C315          -17.3102589646       28.4208395702        4.9568013969  MEMB      44              0.0000000000
      6561        72  DOPC      H15X          -16.1995068798       28.4022248233        4.9710903730  MEMB      44              0.0000000000
      6562        72  DOPC      H15Y          -17.5565983521       29.2180996396        5.6902951092  MEMB      44              0.0000000000
      6563        72  DOPC      C316          -17.7313975768       28.7022653067        3.5561165168  MEMB      44              0.0000000000
      6564        72  DOPC      H16X          -18.8416863741       28.7396651206        3.5426518559  MEMB      44              0.0000000000
      6565        72  DOPC      H16Y          -17.4447315797       29.7562753961        3.3531229139  MEMB      44              0.0000000000
      6566        72  DOPC      C317          -17.2167958853       27.6966902102        2.5557377854  MEMB      44              0.0000000000
      6567        72  DOPC      H17X          -16.1416298040       27.8706365037        2.3364644808  MEMB      44              0.0000000000
      6568        72  DOPC      H17Y          -17.1897252293       26.6642869013        2.9652901215  MEMB      44              0.0000000000
      6569        72  DOPC      C318          -17.9722179839       27.6836745977        1.2262300904  MEMB      44              0.0000000000
      6570        72  DOPC      H18X          -18.9737618149       27.2244545837        1.3688815165  MEMB      44              0.0000000000
      6571        72  DOPC      H18Y          -18.2149554061       28.6104929801        0.6637305380  MEMB      44              0.0000000000
      6572        72  DOPC      H18Z          -17.5034561320       27.0278406086        0.4617270851  MEMB      44              0.0000000000
      6573        73  DOPC      N             -30.4194100486      -12.8611265888       17.9880822178  MEMB      45              0.0000000000
      6574        73  DOPC      C12           -29.9647265380      -11.4350317393       18.1830554652  MEMB      45              0.0000000000
      6575        73  DOPC      H12A          -30.6956865782      -10.7803036637       17.7320247160  MEMB      45              0.0000000000
      6576        73  DOPC      H12B          -29.0829405231      -11.3603739907       17.5639596650  MEMB      45              0.0000000000
      6577        73  DOPC      C13           -31.9084190960      -13.0470518383       18.4684268592  MEMB      45              0.0000000000
      6578        73  DOPC      H13A          -32.4095685265      -13.8357809696       17.9269884659  MEMB      45              0.0000000000
      6579        73  DOPC      H13B          -31.8727983167      -13.2464883569       19.5292549050  MEMB      45              0.0000000000
      6580        73  DOPC      H13C          -32.4517175317      -12.1383505511       18.2551453806  MEMB      45              0.0000000000
      6581        73  DOPC      C14           -29.5271001986      -13.8637372854       18.5428056011  MEMB      45              0.0000000000
      6582        73  DOPC      H14A          -28.5635985450      -13.9550774519       18.0635127117  MEMB      45              0.0000000000
      6583        73  DOPC      H14B          -29.3918419472      -13.7177155913       19.6043058980  MEMB      45              0.0000000000
      6584        73  DOPC      H14C          -30.0169485423      -14.8170474451       18.4099579837  MEMB      45              0.0000000000
      6585        73  DOPC      C15           -30.5248235050      -13.0852337737       16.4554731471  MEMB      45              0.0000000000
      6586        73  DOPC      H15A          -29.6781974849      -12.5940681391       15.9989857718  MEMB      45              0.0000000000
      6587        73  DOPC      H15B          -31.3481784466      -12.4896471547       16.0897363854  MEMB      45              0.0000000000
      6588        73  DOPC      H15C          -30.6648120992      -14.0922797111       16.0912454661  MEMB      45              0.0000000000
      6589        73  DOPC      C11           -29.6529413546      -10.9471548886       19.6300184064  MEMB      45              0.0000000000
      6590        73  DOPC      H11A          -29.2819414176       -9.8999780412       19.6400444705  MEMB      45              0.0000000000
      6591        73  DOPC      H11B          -30.5693960567      -11.0167078090       20.2541931704  MEMB      45              0.0000000000
      6592        73  DOPC      P             -27.1144379982      -11.4378186292       19.9889685398  MEMB      45              0.0000000000
      6593        73  DOPC      O13           -26.2761151043      -12.6864120304       20.1939205860  MEMB      45              0.0000000000
      6594        73  DOPC      O14           -26.8904974793      -10.3368235264       20.9040674590  MEMB      45              0.0000000000
      6595        73  DOPC      O12           -28.5867775136      -11.8532485599       20.1576852427  MEMB      45              0.0000000000
      6596        73  DOPC      O11           -27.1433343646      -11.0451285384       18.4874964759  MEMB      45              0.0000000000
      6597        73  DOPC      C1            -26.7053312821       -9.7608269068       18.0804297581  MEMB      45              0.0000000000
      6598        73  DOPC      HA            -25.7311955818       -9.5102049476       18.5522022376  MEMB      45              0.0000000000
      6599        73  DOPC      HB            -27.3287422918       -8.9001739538       18.4043995676  MEMB      45              0.0000000000
      6600        73  DOPC      C2            -26.5939980935       -9.5276756779       16.5267187625  MEMB      45              0.0000000000
      6601        73  DOPC      HS            -26.2688733022       -8.4737827742       16.3928349671  MEMB      45              0.0000000000
      6602        73  DOPC      O21           -27.8905341527       -9.6785207619       15.9302963871  MEMB      45              0.0000000000
      6603        73  DOPC      C21           -28.0373382000       -8.9518440539       14.7553077138  MEMB      45              0.0000000000
      6604        73  DOPC      O22           -27.2149365568       -8.1758361475       14.3439945926  MEMB      45              0.0000000000
      6605        73  DOPC      C22           -29.4074436786       -9.1291254704       14.2423822630  MEMB      45              0.0000000000
      6606        73  DOPC      H2R           -29.9005330166       -8.1919018015       13.9065313796  MEMB      45              0.0000000000
      6607        73  DOPC      H2S           -30.1413638204       -9.5932615801       14.9353897816  MEMB      45              0.0000000000
      6608        73  DOPC      C3            -25.6974221235      -10.5634520915       15.6750304437  MEMB      45              0.0000000000
      6609        73  DOPC      HX            -24.6627126725      -10.6489161691       16.0704964427  MEMB      45              0.0000000000
      6610        73  DOPC      HY            -25.6052046004      -10.2001610934       14.6291641108  MEMB      45              0.0000000000
      6611        73  DOPC      O31           -26.2042622879      -11.8877986154       15.8963442522  MEMB      45              0.0000000000
      6612        73  DOPC      C31           -25.5140637764      -12.8469680897       15.2720962319  MEMB      45              0.0000000000
      6613        73  DOPC      O32           -24.5761673328      -12.6033164918       14.4793251752  MEMB      45              0.0000000000
      6614        73  DOPC      C32           -26.0473866390      -14.2582316013       15.4719335412  MEMB      45              0.0000000000
      6615        73  DOPC      H2X           -25.2005418400      -14.9663918353       15.3466989710  MEMB      45              0.0000000000
      6616        73  DOPC      H2Y           -26.5112813704      -14.2391626352       16.4812693135  MEMB      45              0.0000000000
      6617        73  DOPC      C23           -29.1772108570       -9.9849787827       12.9837774229  MEMB      45              0.0000000000
      6618        73  DOPC      H3R           -28.8568473670      -10.9546425356       13.4213167502  MEMB      45              0.0000000000
      6619        73  DOPC      H3S           -28.4173948580       -9.4249351196       12.3978151914  MEMB      45              0.0000000000
      6620        73  DOPC      C24           -30.5183054580      -10.2081117665       12.1939582878  MEMB      45              0.0000000000
      6621        73  DOPC      H4R           -30.9390558919       -9.2113135899       11.9416028128  MEMB      45              0.0000000000
      6622        73  DOPC      H4S           -31.1872560147      -10.7306396361       12.9107503658  MEMB      45              0.0000000000
      6623        73  DOPC      C25           -30.2239232924      -11.0897060260       10.9697574350  MEMB      45              0.0000000000
      6624        73  DOPC      H5R           -29.7553067195      -12.0146522007       11.3687488986  MEMB      45              0.0000000000
      6625        73  DOPC      H5S           -29.4284548869      -10.6212230528       10.3516359796  MEMB      45              0.0000000000
      6626        73  DOPC      C26           -31.4104631136      -11.5272469394       10.0727414512  MEMB      45              0.0000000000
      6627        73  DOPC      H6R           -32.2312718955      -10.7819384161       10.0012606226  MEMB      45              0.0000000000
      6628        73  DOPC      H6S           -31.7983847260      -12.5671439647       10.1222581629  MEMB      45              0.0000000000
      6629        73  DOPC      C27           -30.8855247315      -11.5609825033        8.6164070147  MEMB      45              0.0000000000
      6630        73  DOPC      H7R           -29.8818031798      -12.0299387272        8.6997393816  MEMB      45              0.0000000000
      6631        73  DOPC      H7S           -30.7894299542      -10.4961106758        8.3145215531  MEMB      45              0.0000000000
      6632        73  DOPC      C28           -31.8769758968      -12.2735211524        7.7000213848  MEMB      45              0.0000000000
      6633        73  DOPC      H8R           -32.9001773527      -11.8598489519        7.8275138042  MEMB      45              0.0000000000
      6634        73  DOPC      H8S           -31.9512795877      -13.3220741376        8.0596554157  MEMB      45              0.0000000000
      6635        73  DOPC      C29           -31.5925723920      -12.3088642374        6.2280234210  MEMB      45              0.0000000000
      6636        73  DOPC      H9R           -32.4134422009      -12.8693398711        5.7568130713  MEMB      45              0.0000000000
      6637        73  DOPC      C210          -30.5200843834      -11.8458342530        5.4687122157  MEMB      45              0.0000000000
      6638        73  DOPC      H10R          -30.7536430437      -12.0000745685        4.4049169506  MEMB      45              0.0000000000
      6639        73  DOPC      C211          -29.2845236647      -11.0795959817        5.8533960969  MEMB      45              0.0000000000
      6640        73  DOPC      H11R          -28.5580785694      -11.6221190898        5.2113150931  MEMB      45              0.0000000000
      6641        73  DOPC      H11S          -29.0037979105      -11.0517935561        6.9279845802  MEMB      45              0.0000000000
      6642        73  DOPC      C212          -29.3202197188       -9.6557232779        5.2335856158  MEMB      45              0.0000000000
      6643        73  DOPC      H12R          -29.6035709532       -9.0170224110        6.0973536342  MEMB      45              0.0000000000
      6644        73  DOPC      H12S          -30.1756448180       -9.5274565825        4.5363645996  MEMB      45              0.0000000000
      6645        73  DOPC      C213          -27.9609596934       -9.1656641616        4.6526837439  MEMB      45              0.0000000000
      6646        73  DOPC      H13R          -28.2302510379       -8.1402886808        4.3204060078  MEMB      45              0.0000000000
      6647        73  DOPC      H13S          -27.7091419502       -9.8127082365        3.7853651825  MEMB      45              0.0000000000
      6648        73  DOPC      C214          -26.7304475637       -9.1645966050        5.5770704446  MEMB      45              0.0000000000
      6649        73  DOPC      H14R          -26.8199953971       -9.7533325589        6.5149893777  MEMB      45              0.0000000000
      6650        73  DOPC      H14S          -26.4868398104       -8.1165690439        5.8538634526  MEMB      45              0.0000000000
      6651        73  DOPC      C215          -25.4299754245       -9.7075505801        4.9034463857  MEMB      45              0.0000000000
      6652        73  DOPC      H15R          -24.7137424727       -9.4355659176        5.7080305931  MEMB      45              0.0000000000
      6653        73  DOPC      H15S          -25.2547543286       -9.1633427349        3.9508414330  MEMB      45              0.0000000000
      6654        73  DOPC      C216          -25.5076715692      -11.2262250010        4.6028630279  MEMB      45              0.0000000000
      6655        73  DOPC      H16R          -26.1851515727      -11.3836410243        3.7365132092  MEMB      45              0.0000000000
      6656        73  DOPC      H16S          -25.9548927436      -11.7870162429        5.4512901212  MEMB      45              0.0000000000
      6657        73  DOPC      C217          -24.1113096112      -11.8733118880        4.1677655847  MEMB      45              0.0000000000
      6658        73  DOPC      H17R          -24.2005635230      -12.9703609816        4.0166432488  MEMB      45              0.0000000000
      6659        73  DOPC      H17S          -23.2700493634      -11.6634728783        4.8624381808  MEMB      45              0.0000000000
      6660        73  DOPC      C218          -23.6183659708      -11.3017605448        2.7542741195  MEMB      45              0.0000000000
      6661        73  DOPC      H18R          -22.7457183381      -11.9418079136        2.5029856000  MEMB      45              0.0000000000
      6662        73  DOPC      H18S          -23.1977024545      -10.2735357672        2.7650888528  MEMB      45              0.0000000000
      6663        73  DOPC      H18T          -24.4404492982      -11.4631183521        2.0245731647  MEMB      45              0.0000000000
      6664        73  DOPC      C33           -27.3559452134      -14.3545490397       14.5727089079  MEMB      45              0.0000000000
      6665        73  DOPC      H3X           -27.9088408146      -13.5253537170       15.0636902792  MEMB      45              0.0000000000
      6666        73  DOPC      H3Y           -27.8830463988      -15.3103547643       14.7798819320  MEMB      45              0.0000000000
      6667        73  DOPC      C34           -27.0766137097      -14.0823625500       13.1757202936  MEMB      45              0.0000000000
      6668        73  DOPC      H4X           -26.1499296150      -14.5750641371       12.8112724090  MEMB      45              0.0000000000
      6669        73  DOPC      H4Y           -26.8904933221      -13.0069485320       12.9679588584  MEMB      45              0.0000000000
      6670        73  DOPC      C35           -28.1121412362      -14.4132524578       11.9787929436  MEMB      45              0.0000000000
      6671        73  DOPC      H5X           -28.0890011296      -13.6221754730       11.1990602431  MEMB      45              0.0000000000
      6672        73  DOPC      H5Y           -29.1625710690      -14.4159364720       12.3406091118  MEMB      45              0.0000000000
      6673        73  DOPC      C36           -27.8183737497      -15.8246104264       11.3965285333  MEMB      45              0.0000000000
      6674        73  DOPC      H6X           -26.7497237225      -15.6706636109       11.1345957882  MEMB      45              0.0000000000
      6675        73  DOPC      H6Y           -27.9567661791      -16.6933736694       12.0750704474  MEMB      45              0.0000000000
      6676        73  DOPC      C37           -28.5416613776      -16.2192890372       10.0312169302  MEMB      45              0.0000000000
      6677        73  DOPC      H7X           -28.1852588397      -17.2097451220        9.6758365854  MEMB      45              0.0000000000
      6678        73  DOPC      H7Y           -29.6324560936      -16.3220462370       10.2154145484  MEMB      45              0.0000000000
      6679        73  DOPC      C38           -28.3398066487      -15.2335435967        8.9169036092  MEMB      45              0.0000000000
      6680        73  DOPC      H8X           -28.5302468074      -14.2086224692        9.3010776628  MEMB      45              0.0000000000
      6681        73  DOPC      H8Y           -29.1344010905      -15.3040930141        8.1436223313  MEMB      45              0.0000000000
      6682        73  DOPC      C39           -27.0112740502      -15.2190036227        8.2322545899  MEMB      45              0.0000000000
      6683        73  DOPC      H9X           -26.0861291137      -14.9051282576        8.7378131876  MEMB      45              0.0000000000
      6684        73  DOPC      C310          -26.8735429804      -15.6484656779        6.9893725868  MEMB      45              0.0000000000
      6685        73  DOPC      H10X          -25.8207678033      -15.5790745755        6.6781658781  MEMB      45              0.0000000000
      6686        73  DOPC      C311          -27.8632204853      -16.2264679096        5.9701072115  MEMB      45              0.0000000000
      6687        73  DOPC      H11X          -28.7695094766      -16.4412786684        6.5757618606  MEMB      45              0.0000000000
      6688        73  DOPC      H11Y          -27.3976413986      -17.2051822202        5.7258235028  MEMB      45              0.0000000000
      6689        73  DOPC      C312          -28.1334754815      -15.3651568105        4.7127648926  MEMB      45              0.0000000000
      6690        73  DOPC      H12X          -28.7237694734      -14.4998502744        5.0830610672  MEMB      45              0.0000000000
      6691        73  DOPC      H12Y          -28.8616440791      -15.9047023307        4.0701285459  MEMB      45              0.0000000000
      6692        73  DOPC      C313          -26.9564218353      -14.9517460178        3.9416872318  MEMB      45              0.0000000000
      6693        73  DOPC      H13X          -26.4309995299      -14.1735513594        4.5355434424  MEMB      45              0.0000000000
      6694        73  DOPC      H13Y          -26.1901497727      -15.7382440731        3.7726648097  MEMB      45              0.0000000000
      6695        73  DOPC      C314          -27.4235535863      -14.2938578656        2.6057361937  MEMB      45              0.0000000000
      6696        73  DOPC      H14X          -28.4276661990      -13.8672964507        2.8157916048  MEMB      45              0.0000000000
      6697        73  DOPC      H14Y          -26.9049644410      -13.3332180756        2.3994423285  MEMB      45              0.0000000000
      6698        73  DOPC      C315          -27.5548444197      -15.2344031686        1.4294971273  MEMB      45              0.0000000000
      6699        73  DOPC      H15X          -27.7181335714      -16.2328385663        1.8886090223  MEMB      45              0.0000000000
      6700        73  DOPC      H15Y          -26.6123817986      -15.2133299370        0.8415834958  MEMB      45              0.0000000000
      6701        73  DOPC      C316          -28.6962556168      -14.9925428688        0.4586618082  MEMB      45              0.0000000000
      6702        73  DOPC      H16X          -28.7950808880      -15.9007304446       -0.1735966275  MEMB      45              0.0000000000
      6703        73  DOPC      H16Y          -29.6359788726      -14.8370088724        1.0305454559  MEMB      45              0.0000000000
      6704        73  DOPC      C317          -28.5617257833      -13.8358450195       -0.5972702948  MEMB      45              0.0000000000
      6705        73  DOPC      H17X          -29.4445032976      -13.7973297888       -1.2707248095  MEMB      45              0.0000000000
      6706        73  DOPC      H17Y          -28.5821004603      -12.8922865210       -0.0110936984  MEMB      45              0.0000000000
      6707        73  DOPC      C318          -27.2866640655      -13.7271091670       -1.4526173995  MEMB      45              0.0000000000
      6708        73  DOPC      H18X          -26.9507657681      -14.6978604400       -1.8758614082  MEMB      45              0.0000000000
      6709        73  DOPC      H18Y          -27.3764821876      -12.9959880224       -2.2843120022  MEMB      45              0.0000000000
      6710        73  DOPC      H18Z          -26.4265010267      -13.4456906172       -0.8082228982  MEMB      45              0.0000000000
      6711        74  DOPC      N             -10.6340407544       31.0729094984       20.8488357868  MEMB      46              0.0000000000
      6712        74  DOPC      C12           -10.0364557252       32.3989562193       20.3109027259  MEMB      46              0.0000000000
      6713        74  DOPC      H12A           -9.2691915241       32.7009428010       21.0084052721  MEMB      46              0.0000000000
      6714        74  DOPC      H12B          -10.8076475508       33.1537142805       20.3556601281  MEMB      46              0.0000000000
      6715        74  DOPC      C13           -11.5426519933       30.5804529073       19.7505638367  MEMB      46              0.0000000000
      6716        74  DOPC      H13A          -10.9963978528       30.4904720943       18.8232506492  MEMB      46              0.0000000000
      6717        74  DOPC      H13B          -11.9519712124       29.6146068489       20.0074671897  MEMB      46              0.0000000000
      6718        74  DOPC      H13C          -12.3283370238       31.2773368880       19.4986672892  MEMB      46              0.0000000000
      6719        74  DOPC      C14           -11.2414078529       31.2948919613       22.2145881099  MEMB      46              0.0000000000
      6720        74  DOPC      H14A          -10.3464708586       31.4096569150       22.8081507400  MEMB      46              0.0000000000
      6721        74  DOPC      H14B          -11.6986574513       32.2733023936       22.2085989639  MEMB      46              0.0000000000
      6722        74  DOPC      H14C          -11.9571932316       30.5398338314       22.5043096456  MEMB      46              0.0000000000
      6723        74  DOPC      C15            -9.4497195501       30.1196911993       20.8970699325  MEMB      46              0.0000000000
      6724        74  DOPC      H15A           -9.7129155266       29.1068982760       21.1642370778  MEMB      46              0.0000000000
      6725        74  DOPC      H15B           -8.6506241330       30.3984267445       21.5680042312  MEMB      46              0.0000000000
      6726        74  DOPC      H15C           -8.9711978467       30.1031619016       19.9290080803  MEMB      46              0.0000000000
      6727        74  DOPC      C11            -9.3873719622       32.5555719912       18.9063884612  MEMB      46              0.0000000000
      6728        74  DOPC      H11A          -10.2385993262       32.2559439681       18.2583483186  MEMB      46              0.0000000000
      6729        74  DOPC      H11B           -9.2051970597       33.6150867937       18.6260998935  MEMB      46              0.0000000000
      6730        74  DOPC      P              -7.8707271935       31.6524831585       17.1890904045  MEMB      46              0.0000000000
      6731        74  DOPC      O13            -6.7854892799       32.5636219238       16.8391844007  MEMB      46              0.0000000000
      6732        74  DOPC      O14            -9.0978071951       31.6897323054       16.3137142205  MEMB      46              0.0000000000
      6733        74  DOPC      O12            -8.2419314426       31.6972940611       18.7772577077  MEMB      46              0.0000000000
      6734        74  DOPC      O11            -7.3094186692       30.1828489259       16.9524044135  MEMB      46              0.0000000000
      6735        74  DOPC      C1             -7.9125089222       29.0285854156       17.4334116033  MEMB      46              0.0000000000
      6736        74  DOPC      HA             -9.0146152654       29.1165773406       17.5426820169  MEMB      46              0.0000000000
      6737        74  DOPC      HB             -7.5208873019       28.6157619797       18.3876287359  MEMB      46              0.0000000000
      6738        74  DOPC      C2             -7.8821502708       27.7067094634       16.5741372473  MEMB      46              0.0000000000
      6739        74  DOPC      HS             -6.8298104701       27.3519600880       16.6066134471  MEMB      46              0.0000000000
      6740        74  DOPC      O21            -8.2071879754       28.1256932101       15.2009367169  MEMB      46              0.0000000000
      6741        74  DOPC      C21            -7.6581389173       27.4952726567       14.2369779758  MEMB      46              0.0000000000
      6742        74  DOPC      O22            -6.8070437086       26.6140804826       14.3105081839  MEMB      46              0.0000000000
      6743        74  DOPC      C22            -8.2510450816       28.0173691404       12.8145235829  MEMB      46              0.0000000000
      6744        74  DOPC      H2R            -8.0356777357       29.0859333310       12.5997949653  MEMB      46              0.0000000000
      6745        74  DOPC      H2S            -9.3483169114       27.8660353990       12.7284203949  MEMB      46              0.0000000000
      6746        74  DOPC      C3             -8.8758738252       26.5999772058       17.0416056102  MEMB      46              0.0000000000
      6747        74  DOPC      HX             -8.5092206979       26.3987984069       18.0708836252  MEMB      46              0.0000000000
      6748        74  DOPC      HY             -8.7785496433       25.6368695330       16.4963786966  MEMB      46              0.0000000000
      6749        74  DOPC      O31           -10.1902390717       27.1383007293       17.2359188274  MEMB      46              0.0000000000
      6750        74  DOPC      C31           -11.1662308272       26.9662573234       16.4159922075  MEMB      46              0.0000000000
      6751        74  DOPC      O32           -11.0541589957       26.3030250193       15.3914042898  MEMB      46              0.0000000000
      6752        74  DOPC      C32           -12.3937555730       27.6450832460       16.9172672117  MEMB      46              0.0000000000
      6753        74  DOPC      H2X           -13.2474287373       26.9504100310       17.0688977794  MEMB      46              0.0000000000
      6754        74  DOPC      H2Y           -12.2539103741       28.1775991776       17.8822494440  MEMB      46              0.0000000000
      6755        74  DOPC      C23            -7.8000925863       27.1232948350       11.6786118163  MEMB      46              0.0000000000
      6756        74  DOPC      H3R            -8.4140284493       26.2067042029       11.8100095633  MEMB      46              0.0000000000
      6757        74  DOPC      H3S            -6.7255885289       26.8422557794       11.7065242023  MEMB      46              0.0000000000
      6758        74  DOPC      C24            -8.0174908471       27.7275186377       10.2540890481  MEMB      46              0.0000000000
      6759        74  DOPC      H4R            -7.2350049165       28.5107255910       10.1612248608  MEMB      46              0.0000000000
      6760        74  DOPC      H4S            -8.9452911855       28.3348738409       10.1860656610  MEMB      46              0.0000000000
      6761        74  DOPC      C25            -7.8548669230       26.7390760465        9.0851787883  MEMB      46              0.0000000000
      6762        74  DOPC      H5R            -8.8632346900       26.2729971381        9.0682631058  MEMB      46              0.0000000000
      6763        74  DOPC      H5S            -7.0980800920       25.9801536478        9.3778070172  MEMB      46              0.0000000000
      6764        74  DOPC      C26            -7.3616999361       27.1257540571        7.7401236358  MEMB      46              0.0000000000
      6765        74  DOPC      H6R            -7.3517445132       26.2057370318        7.1173954286  MEMB      46              0.0000000000
      6766        74  DOPC      H6S            -6.3176625139       27.4969223597        7.8210000735  MEMB      46              0.0000000000
      6767        74  DOPC      C27            -8.2880455907       28.2244463870        7.1664230681  MEMB      46              0.0000000000
      6768        74  DOPC      H7R            -8.5156473235       29.0265179467        7.9007257500  MEMB      46              0.0000000000
      6769        74  DOPC      H7S            -9.3100927264       27.8526825872        6.9394156988  MEMB      46              0.0000000000
      6770        74  DOPC      C28            -7.7328043384       28.7055587537        5.8263835847  MEMB      46              0.0000000000
      6771        74  DOPC      H8R            -6.6687762611       28.9696529180        6.0064388248  MEMB      46              0.0000000000
      6772        74  DOPC      H8S            -8.0986250873       29.6645601732        5.4011631302  MEMB      46              0.0000000000
      6773        74  DOPC      C29            -7.9049112839       27.6279799724        4.7983785337  MEMB      46              0.0000000000
      6774        74  DOPC      H9R            -8.8868168417       27.1404051170        4.8885565284  MEMB      46              0.0000000000
      6775        74  DOPC      C210           -7.0266298067       27.1960611722        3.8598933561  MEMB      46              0.0000000000
      6776        74  DOPC      H10R           -7.3718159886       26.5053307728        3.0764793156  MEMB      46              0.0000000000
      6777        74  DOPC      C211           -5.6191740268       27.6609883541        3.5637788330  MEMB      46              0.0000000000
      6778        74  DOPC      H11R           -5.2704842877       27.1604442514        2.6352348477  MEMB      46              0.0000000000
      6779        74  DOPC      H11S           -4.9027877443       27.2447456953        4.3039507217  MEMB      46              0.0000000000
      6780        74  DOPC      C212           -5.3543485007       29.1245681390        3.2013841326  MEMB      46              0.0000000000
      6781        74  DOPC      H12R           -4.2569915110       29.2838854831        3.1324887647  MEMB      46              0.0000000000
      6782        74  DOPC      H12S           -5.5953299009       29.7053540839        4.1173185117  MEMB      46              0.0000000000
      6783        74  DOPC      C213           -6.1029149762       29.6869469605        2.0715651731  MEMB      46              0.0000000000
      6784        74  DOPC      H13R           -5.8613842403       30.7711434977        2.0491360490  MEMB      46              0.0000000000
      6785        74  DOPC      H13S           -7.1674876619       29.5687134385        2.3665685574  MEMB      46              0.0000000000
      6786        74  DOPC      C214           -5.9154212419       28.9693435965        0.7465680484  MEMB      46              0.0000000000
      6787        74  DOPC      H14R           -6.4322259211       27.9859695922        0.7610136492  MEMB      46              0.0000000000
      6788        74  DOPC      H14S           -4.8307843694       28.7382086724        0.6797798648  MEMB      46              0.0000000000
      6789        74  DOPC      C215           -6.2713278014       29.8226668824       -0.5003910586  MEMB      46              0.0000000000
      6790        74  DOPC      H15R           -5.5118617940       30.6335500066       -0.5017281115  MEMB      46              0.0000000000
      6791        74  DOPC      H15S           -7.3018334068       30.2365617920       -0.5331073306  MEMB      46              0.0000000000
      6792        74  DOPC      C216           -5.9357269177       29.1403460413       -1.8308698835  MEMB      46              0.0000000000
      6793        74  DOPC      H16R           -4.9680053277       28.6047162941       -1.7262913614  MEMB      46              0.0000000000
      6794        74  DOPC      H16S           -5.8111044694       29.8816295150       -2.6489713380  MEMB      46              0.0000000000
      6795        74  DOPC      C217           -6.8942145070       28.0289890209       -2.4249188574  MEMB      46              0.0000000000
      6796        74  DOPC      H17R           -6.8391145523       27.0708748947       -1.8651846909  MEMB      46              0.0000000000
      6797        74  DOPC      H17S           -6.5226594001       27.7501799601       -3.4341431802  MEMB      46              0.0000000000
      6798        74  DOPC      C218           -8.4018453693       28.3431073516       -2.6053703572  MEMB      46              0.0000000000
      6799        74  DOPC      H18R           -8.8939296099       27.5555598090       -3.2152408076  MEMB      46              0.0000000000
      6800        74  DOPC      H18S           -8.4836040897       29.2632186534       -3.2226482624  MEMB      46              0.0000000000
      6801        74  DOPC      H18T           -8.8220161262       28.5223023100       -1.5926184624  MEMB      46              0.0000000000
      6802        74  DOPC      C33           -12.7144420922       28.7858267289       15.9115492678  MEMB      46              0.0000000000
      6803        74  DOPC      H3X           -13.6928046348       29.1641661442       16.2775916779  MEMB      46              0.0000000000
      6804        74  DOPC      H3Y           -12.9559755969       28.4181126212       14.8913683732  MEMB      46              0.0000000000
      6805        74  DOPC      C34           -11.8022916790       30.0612955903       15.7283830438  MEMB      46              0.0000000000
      6806        74  DOPC      H4X           -10.7478704121       29.7174055178       15.6631431967  MEMB      46              0.0000000000
      6807        74  DOPC      H4Y           -11.8330249397       30.6406917108       16.6758408853  MEMB      46              0.0000000000
      6808        74  DOPC      C35           -12.2215652781       30.9961260250       14.5524108953  MEMB      46              0.0000000000
      6809        74  DOPC      H5X           -11.5269067896       31.8612743968       14.6097616153  MEMB      46              0.0000000000
      6810        74  DOPC      H5Y           -13.2110776026       31.4396224674       14.7942724948  MEMB      46              0.0000000000
      6811        74  DOPC      C36           -11.9574988509       30.3498756051       13.2008853933  MEMB      46              0.0000000000
      6812        74  DOPC      H6X           -10.8628228210       30.2072873078       13.0756886923  MEMB      46              0.0000000000
      6813        74  DOPC      H6Y           -12.3574108205       29.3142723145       13.1571051906  MEMB      46              0.0000000000
      6814        74  DOPC      C37           -12.4881073350       31.1834238517       11.9805258461  MEMB      46              0.0000000000
      6815        74  DOPC      H7X           -13.5565771614       31.4452604594       12.1358799137  MEMB      46              0.0000000000
      6816        74  DOPC      H7Y           -11.9247410010       32.1388686148       11.9167702204  MEMB      46              0.0000000000
      6817        74  DOPC      C38           -12.6386128638       30.3483286357       10.6348627226  MEMB      46              0.0000000000
      6818        74  DOPC      H8X           -13.4070092496       29.6009916571       10.9270536196  MEMB      46              0.0000000000
      6819        74  DOPC      H8Y           -11.6337227788       29.8799136784       10.5634203785  MEMB      46              0.0000000000
      6820        74  DOPC      C39           -13.0236695048       31.1045244226        9.3592672695  MEMB      46              0.0000000000
      6821        74  DOPC      H9X           -13.5543878393       32.0456406959        9.5657572910  MEMB      46              0.0000000000
      6822        74  DOPC      C310          -12.8790948064       30.6152487023        8.1832238157  MEMB      46              0.0000000000
      6823        74  DOPC      H10X          -13.1238392012       31.1991552916        7.2836947964  MEMB      46              0.0000000000
      6824        74  DOPC      C311          -12.2362258580       29.2769710091        7.8185486999  MEMB      46              0.0000000000
      6825        74  DOPC      H11X          -12.2634912900       28.4375701737        8.5458615230  MEMB      46              0.0000000000
      6826        74  DOPC      H11Y          -11.1736505549       29.4013137158        7.5188923046  MEMB      46              0.0000000000
      6827        74  DOPC      C312          -13.0505429188       28.6368720190        6.5974775510  MEMB      46              0.0000000000
      6828        74  DOPC      H12X          -14.0531099025       28.2857108148        6.9228488720  MEMB      46              0.0000000000
      6829        74  DOPC      H12Y          -12.5289998914       27.6775075844        6.3927006707  MEMB      46              0.0000000000
      6830        74  DOPC      C313          -13.0307577111       29.5418556011        5.2656010122  MEMB      46              0.0000000000
      6831        74  DOPC      H13X          -13.6674502033       30.4123253238        5.5324832676  MEMB      46              0.0000000000
      6832        74  DOPC      H13Y          -12.0099042120       29.9662347683        5.1556845195  MEMB      46              0.0000000000
      6833        74  DOPC      C314          -13.7343651123       28.9011185817        4.0652405604  MEMB      46              0.0000000000
      6834        74  DOPC      H14X          -14.6688245988       28.4769039758        4.4908566892  MEMB      46              0.0000000000
      6835        74  DOPC      H14Y          -14.0765242568       29.6040341516        3.2758374426  MEMB      46              0.0000000000
      6836        74  DOPC      C315          -12.9324813128       27.7324108504        3.4814355526  MEMB      46              0.0000000000
      6837        74  DOPC      H15X          -13.5053340694       27.1685761985        2.7144609370  MEMB      46              0.0000000000
      6838        74  DOPC      H15Y          -12.5737406983       27.0864279461        4.3110938012  MEMB      46              0.0000000000
      6839        74  DOPC      C316          -11.6949752897       28.0796165655        2.6863391901  MEMB      46              0.0000000000
      6840        74  DOPC      H16X          -11.0329752364       28.8298276048        3.1693090188  MEMB      46              0.0000000000
      6841        74  DOPC      H16Y          -11.1484301863       27.1809824663        2.3284743602  MEMB      46              0.0000000000
      6842        74  DOPC      C317          -12.0707968092       28.7045581176        1.3473101440  MEMB      46              0.0000000000
      6843        74  DOPC      H17X          -12.5872602422       28.0728234124        0.5933213311  MEMB      46              0.0000000000
      6844        74  DOPC      H17Y          -12.5904753266       29.6862691844        1.3249880144  MEMB      46              0.0000000000
      6845        74  DOPC      C318          -10.7685674787       29.1749586231        0.6045031891  MEMB      46              0.0000000000
      6846        74  DOPC      H18X          -10.2736979258       28.3998415658       -0.0188882540  MEMB      46              0.0000000000
      6847        74  DOPC      H18Y          -11.0991526691       29.9093739057       -0.1607860704  MEMB      46              0.0000000000
      6848        74  DOPC      H18Z          -10.0961520498       29.6838530634        1.3278339022  MEMB      46              0.0000000000
      6849        75  DOPC      N             -25.9309798640       23.6994266282       21.2759605997  MEMB      47              0.0000000000
      6850        75  DOPC      C12           -25.7334959860       23.1683985210       19.8103993944  MEMB      47              0.0000000000
      6851        75  DOPC      H12A          -26.7109403989       22.9264883830       19.4199099633  MEMB      47              0.0000000000
      6852        75  DOPC      H12B          -25.1237988464       22.2791558624       19.8729822486  MEMB      47              0.0000000000
      6853        75  DOPC      C13           -26.7348483213       24.9724947789       21.1758133962  MEMB      47              0.0000000000
      6854        75  DOPC      H13A          -26.3448340519       25.7436016996       21.8236428599  MEMB      47              0.0000000000
      6855        75  DOPC      H13B          -26.6069854860       25.3341432085       20.1662285305  MEMB      47              0.0000000000
      6856        75  DOPC      H13C          -27.7727995931       24.7523937704       21.3773393100  MEMB      47              0.0000000000
      6857        75  DOPC      C14           -24.5455595266       23.9655123998       21.9190917800  MEMB      47              0.0000000000
      6858        75  DOPC      H14A          -24.1225649360       22.9828231345       22.0667313946  MEMB      47              0.0000000000
      6859        75  DOPC      H14B          -23.8583737682       24.4412723242       21.2351119799  MEMB      47              0.0000000000
      6860        75  DOPC      H14C          -24.6529900497       24.5055250545       22.8482015555  MEMB      47              0.0000000000
      6861        75  DOPC      C15           -26.6449867206       22.7413695300       22.1886124725  MEMB      47              0.0000000000
      6862        75  DOPC      H15A          -26.1087838356       21.8106078758       22.3007243001  MEMB      47              0.0000000000
      6863        75  DOPC      H15B          -27.5873797243       22.5495977893       21.6971665354  MEMB      47              0.0000000000
      6864        75  DOPC      H15C          -26.7646638387       23.2145494355       23.1520325151  MEMB      47              0.0000000000
      6865        75  DOPC      C11           -24.9673605143       24.0417703793       18.6569233564  MEMB      47              0.0000000000
      6866        75  DOPC      H11A          -24.0521972704       24.5013576292       19.0877095308  MEMB      47              0.0000000000
      6867        75  DOPC      H11B          -24.6832242375       23.3915227392       17.8020750691  MEMB      47              0.0000000000
      6868        75  DOPC      P             -25.0672210333       25.8043354596       16.7681628792  MEMB      47              0.0000000000
      6869        75  DOPC      O13           -23.6215141236       25.7078712658       16.7750878667  MEMB      47              0.0000000000
      6870        75  DOPC      O14           -25.6736453400       27.0792018179       16.4564652790  MEMB      47              0.0000000000
      6871        75  DOPC      O12           -25.7027703208       25.2006993682       18.1664886331  MEMB      47              0.0000000000
      6872        75  DOPC      O11           -25.5963361477       24.7158272522       15.8069943406  MEMB      47              0.0000000000
      6873        75  DOPC      C1            -26.8554043095       24.1987362902       15.8231832938  MEMB      47              0.0000000000
      6874        75  DOPC      HA            -27.4781482224       24.8031423241       16.5168722945  MEMB      47              0.0000000000
      6875        75  DOPC      HB            -26.7157929190       23.1573881147       16.1843256956  MEMB      47              0.0000000000
      6876        75  DOPC      C2            -27.4197734514       24.3120518669       14.3978831382  MEMB      47              0.0000000000
      6877        75  DOPC      HS            -28.3193975557       23.6697743950       14.2861817854  MEMB      47              0.0000000000
      6878        75  DOPC      O21           -26.4714759733       23.9240199318       13.4461806446  MEMB      47              0.0000000000
      6879        75  DOPC      C21           -26.0281028266       22.6620020451       13.4263234971  MEMB      47              0.0000000000
      6880        75  DOPC      O22           -26.4518311102       21.7359956375       14.0976527241  MEMB      47              0.0000000000
      6881        75  DOPC      C22           -24.8488062159       22.5599746198       12.5149047261  MEMB      47              0.0000000000
      6882        75  DOPC      H2R           -25.1225308610       22.7486146249       11.4548054587  MEMB      47              0.0000000000
      6883        75  DOPC      H2S           -24.5406781172       21.4967650573       12.4202303797  MEMB      47              0.0000000000
      6884        75  DOPC      C3            -27.8452812837       25.7767171028       13.9873203815  MEMB      47              0.0000000000
      6885        75  DOPC      HX            -27.0458979395       26.5119970691       14.2211381532  MEMB      47              0.0000000000
      6886        75  DOPC      HY            -28.7038305066       26.1696463627       14.5728295295  MEMB      47              0.0000000000
      6887        75  DOPC      O31           -28.2465215150       25.8200595762       12.6118278410  MEMB      47              0.0000000000
      6888        75  DOPC      C31           -29.3975907563       25.1400918744       12.3011286364  MEMB      47              0.0000000000
      6889        75  DOPC      O32           -30.0684965602       24.4384106023       13.0537642029  MEMB      47              0.0000000000
      6890        75  DOPC      C32           -29.8133363491       25.5611650272       10.8846747316  MEMB      47              0.0000000000
      6891        75  DOPC      H2X           -30.9146514039       25.5308348124       10.7414750706  MEMB      47              0.0000000000
      6892        75  DOPC      H2Y           -29.4721831175       26.5960771065       10.6681273705  MEMB      47              0.0000000000
      6893        75  DOPC      C23           -23.7841406426       23.5732941810       12.9205572457  MEMB      47              0.0000000000
      6894        75  DOPC      H3R           -22.8371549818       22.9934336363       12.8844912717  MEMB      47              0.0000000000
      6895        75  DOPC      H3S           -23.8608044862       23.8085001476       14.0036648093  MEMB      47              0.0000000000
      6896        75  DOPC      C24           -23.8055354587       24.9175207480       12.2344510913  MEMB      47              0.0000000000
      6897        75  DOPC      H4R           -22.9381049041       25.4876754579       12.6304415387  MEMB      47              0.0000000000
      6898        75  DOPC      H4S           -24.6820093168       25.5319045822       12.5321878835  MEMB      47              0.0000000000
      6899        75  DOPC      C25           -23.7024019607       24.9876452360       10.7034745531  MEMB      47              0.0000000000
      6900        75  DOPC      H5R           -24.2952450496       24.2073306837       10.1800559374  MEMB      47              0.0000000000
      6901        75  DOPC      H5S           -22.6772910593       24.6199019175       10.4838535839  MEMB      47              0.0000000000
      6902        75  DOPC      C26           -23.8044444385       26.3610495868       10.0747965861  MEMB      47              0.0000000000
      6903        75  DOPC      H6R           -22.9759626521       26.9186104742       10.5616900278  MEMB      47              0.0000000000
      6904        75  DOPC      H6S           -24.7344553937       26.7654981711       10.5284726993  MEMB      47              0.0000000000
      6905        75  DOPC      C27           -23.6903034908       26.4186121958        8.5284890257  MEMB      47              0.0000000000
      6906        75  DOPC      H7R           -24.6600734009       26.0013760160        8.1823949281  MEMB      47              0.0000000000
      6907        75  DOPC      H7S           -22.7935992051       25.8464974105        8.2076667688  MEMB      47              0.0000000000
      6908        75  DOPC      C28           -23.6949247364       27.8866407688        8.1174175584  MEMB      47              0.0000000000
      6909        75  DOPC      H8R           -22.8305223480       28.4563308639        8.5206327557  MEMB      47              0.0000000000
      6910        75  DOPC      H8S           -24.5475684313       28.4831192265        8.5066903481  MEMB      47              0.0000000000
      6911        75  DOPC      C29           -23.6174455246       27.9642904782        6.6057974579  MEMB      47              0.0000000000
      6912        75  DOPC      H9R           -22.7672614843       27.3901309237        6.2088993908  MEMB      47              0.0000000000
      6913        75  DOPC      C210          -24.3470735130       28.6835254115        5.7147064530  MEMB      47              0.0000000000
      6914        75  DOPC      H10R          -24.1972062565       28.5938152199        4.6286624102  MEMB      47              0.0000000000
      6915        75  DOPC      C211          -25.4994276649       29.5740059262        6.1382531813  MEMB      47              0.0000000000
      6916        75  DOPC      H11R          -25.8361603777       30.1281346113        5.2361032633  MEMB      47              0.0000000000
      6917        75  DOPC      H11S          -25.1825035908       30.3703346225        6.8451763248  MEMB      47              0.0000000000
      6918        75  DOPC      C212          -26.8353780153       28.9213209085        6.5099707273  MEMB      47              0.0000000000
      6919        75  DOPC      H12R          -27.5381022469       29.7486027999        6.7468341664  MEMB      47              0.0000000000
      6920        75  DOPC      H12S          -26.5751714907       28.3670710370        7.4370204998  MEMB      47              0.0000000000
      6921        75  DOPC      C213          -27.4399474873       27.9542127345        5.4411817015  MEMB      47              0.0000000000
      6922        75  DOPC      H13R          -26.6473732895       27.1805495135        5.5283161335  MEMB      47              0.0000000000
      6923        75  DOPC      H13S          -27.3545880684       28.3859506562        4.4210651370  MEMB      47              0.0000000000
      6924        75  DOPC      C214          -28.7497607615       27.2318110095        5.7183804198  MEMB      47              0.0000000000
      6925        75  DOPC      H14R          -29.5677629787       27.8986033853        5.3711314506  MEMB      47              0.0000000000
      6926        75  DOPC      H14S          -28.8738591867       27.0571412408        6.8085230945  MEMB      47              0.0000000000
      6927        75  DOPC      C215          -28.6923527693       25.8749680489        4.9807869201  MEMB      47              0.0000000000
      6928        75  DOPC      H15R          -29.6797726011       25.4120613998        5.1930148938  MEMB      47              0.0000000000
      6929        75  DOPC      H15S          -27.9432133402       25.2385524261        5.4985575525  MEMB      47              0.0000000000
      6930        75  DOPC      C216          -28.4879270167       25.9978237101        3.4875213537  MEMB      47              0.0000000000
      6931        75  DOPC      H16R          -27.5074426942       26.5030563991        3.3544377287  MEMB      47              0.0000000000
      6932        75  DOPC      H16S          -29.3296490575       26.6776079228        3.2350961234  MEMB      47              0.0000000000
      6933        75  DOPC      C217          -28.6807976851       24.6516863920        2.6526463255  MEMB      47              0.0000000000
      6934        75  DOPC      H17R          -29.7063925017       24.2416603360        2.7724586071  MEMB      47              0.0000000000
      6935        75  DOPC      H17S          -27.8978101909       23.9889033022        3.0792269403  MEMB      47              0.0000000000
      6936        75  DOPC      C218          -28.5190393423       24.6711345737        1.1576781998  MEMB      47              0.0000000000
      6937        75  DOPC      H18R          -27.6151698377       25.1974094950        0.7830118116  MEMB      47              0.0000000000
      6938        75  DOPC      H18S          -29.3535411222       25.0843160249        0.5517008666  MEMB      47              0.0000000000
      6939        75  DOPC      H18T          -28.5987026145       23.5934742088        0.8995637952  MEMB      47              0.0000000000
      6940        75  DOPC      C33           -29.2373481666       24.5835042126        9.8767059747  MEMB      47              0.0000000000
      6941        75  DOPC      H3X           -29.3286562478       24.9385326689        8.8279263936  MEMB      47              0.0000000000
      6942        75  DOPC      H3Y           -29.8162509463       23.6373737302        9.9401853095  MEMB      47              0.0000000000
      6943        75  DOPC      C34           -27.7413989926       24.2689233649       10.0712054830  MEMB      47              0.0000000000
      6944        75  DOPC      H4X           -27.4919517547       23.6819918216       10.9809357787  MEMB      47              0.0000000000
      6945        75  DOPC      H4Y           -27.3058047978       25.2881539529       10.1470196373  MEMB      47              0.0000000000
      6946        75  DOPC      C35           -27.1416011591       23.5301787136        8.8830800010  MEMB      47              0.0000000000
      6947        75  DOPC      H5X           -26.0432963479       23.4777151204        9.0421242005  MEMB      47              0.0000000000
      6948        75  DOPC      H5Y           -27.0759282607       24.2143960439        8.0102369764  MEMB      47              0.0000000000
      6949        75  DOPC      C36           -27.7184812658       22.1100352876        8.6009636832  MEMB      47              0.0000000000
      6950        75  DOPC      H6X           -27.7770641115       21.5279900099        9.5454807001  MEMB      47              0.0000000000
      6951        75  DOPC      H6Y           -28.7047701866       22.1947548942        8.0966042520  MEMB      47              0.0000000000
      6952        75  DOPC      C37           -26.7458183029       21.1923065957        7.6972470134  MEMB      47              0.0000000000
      6953        75  DOPC      H7X           -25.7147863963       21.1450696931        8.1084196474  MEMB      47              0.0000000000
      6954        75  DOPC      H7Y           -27.0810852695       20.1331194309        7.7035730970  MEMB      47              0.0000000000
      6955        75  DOPC      C38           -26.6704468510       21.6957553920        6.2692079127  MEMB      47              0.0000000000
      6956        75  DOPC      H8X           -26.6461087430       22.8041234215        6.3416579979  MEMB      47              0.0000000000
      6957        75  DOPC      H8Y           -27.6224878566       21.2811833796        5.8741521226  MEMB      47              0.0000000000
      6958        75  DOPC      C39           -25.5138171236       21.1911513091        5.4408820493  MEMB      47              0.0000000000
      6959        75  DOPC      H9X           -25.3500541666       20.1186841272        5.6225312472  MEMB      47              0.0000000000
      6960        75  DOPC      C310          -24.7221410165       21.9191098514        4.6176922010  MEMB      47              0.0000000000
      6961        75  DOPC      H10X          -23.9917343881       21.3964140437        3.9826373239  MEMB      47              0.0000000000
      6962        75  DOPC      C311          -24.8925319874       23.4522544693        4.2599953726  MEMB      47              0.0000000000
      6963        75  DOPC      H11X          -25.9404965241       23.7224743609        4.5111376898  MEMB      47              0.0000000000
      6964        75  DOPC      H11Y          -24.8394578250       23.6337331408        3.1652031466  MEMB      47              0.0000000000
      6965        75  DOPC      C312          -24.0358805772       24.5249353776        4.9401145329  MEMB      47              0.0000000000
      6966        75  DOPC      H12X          -23.0716044270       24.0692769635        5.2513496683  MEMB      47              0.0000000000
      6967        75  DOPC      H12Y          -24.5375619829       24.7910376753        5.8950098225  MEMB      47              0.0000000000
      6968        75  DOPC      C313          -23.7161333807       25.6785300846        3.9954171833  MEMB      47              0.0000000000
      6969        75  DOPC      H13X          -24.5999156262       26.3508800017        3.9608385763  MEMB      47              0.0000000000
      6970        75  DOPC      H13Y          -22.8951749851       26.2007559830        4.5317273681  MEMB      47              0.0000000000
      6971        75  DOPC      C314          -23.1269566062       25.3408756525        2.5698727202  MEMB      47              0.0000000000
      6972        75  DOPC      H14X          -22.2113323579       24.7233415743        2.6907248956  MEMB      47              0.0000000000
      6973        75  DOPC      H14Y          -23.8026741931       24.6352154985        2.0409384396  MEMB      47              0.0000000000
      6974        75  DOPC      C315          -22.8617360973       26.5885127825        1.6919211082  MEMB      47              0.0000000000
      6975        75  DOPC      H15X          -22.0457696304       26.3973869379        0.9625439805  MEMB      47              0.0000000000
      6976        75  DOPC      H15Y          -22.4116368973       27.4263468401        2.2661737354  MEMB      47              0.0000000000
      6977        75  DOPC      C316          -24.1111903977       27.0422864973        0.9367449806  MEMB      47              0.0000000000
      6978        75  DOPC      H16X          -23.8497899620       27.9787357990        0.3991063462  MEMB      47              0.0000000000
      6979        75  DOPC      H16Y          -24.3986193392       26.3905428321        0.0841393846  MEMB      47              0.0000000000
      6980        75  DOPC      C317          -25.3826323107       27.3389006036        1.8454121628  MEMB      47              0.0000000000
      6981        75  DOPC      H17X          -25.8022303003       26.4167066695        2.3012809592  MEMB      47              0.0000000000
      6982        75  DOPC      H17Y          -25.0766631339       28.0809448883        2.6135744952  MEMB      47              0.0000000000
      6983        75  DOPC      C318          -26.5285899652       28.0245726740        1.0450618246  MEMB      47              0.0000000000
      6984        75  DOPC      H18X          -27.1957084713       28.6109710357        1.7124521223  MEMB      47              0.0000000000
      6985        75  DOPC      H18Y          -26.0419535421       28.7437709950        0.3520528103  MEMB      47              0.0000000000
      6986        75  DOPC      H18Z          -27.0778230459       27.3645839638        0.3400234658  MEMB      47              0.0000000000
      6987        76  DOPC      N              -0.4102646980       32.4760739604       17.5783754753  MEMB      48              0.0000000000
      6988        76  DOPC      C12            -1.6957757627       33.0138749547       18.0282181611  MEMB      48              0.0000000000
      6989        76  DOPC      H12A           -2.4260972396       32.3487260239       17.5916319867  MEMB      48              0.0000000000
      6990        76  DOPC      H12B           -1.9873429326       33.9329531056       17.5417163592  MEMB      48              0.0000000000
      6991        76  DOPC      C13            -0.4430473027       32.1818242013       16.1138561673  MEMB      48              0.0000000000
      6992        76  DOPC      H13A            0.5353640381       31.8442956485       15.8053343064  MEMB      48              0.0000000000
      6993        76  DOPC      H13B           -1.2039257250       31.4301537602       15.9640047301  MEMB      48              0.0000000000
      6994        76  DOPC      H13C           -0.6367132794       33.0857922122       15.5555235573  MEMB      48              0.0000000000
      6995        76  DOPC      C14            -0.1642371758       31.1355209515       18.2381408630  MEMB      48              0.0000000000
      6996        76  DOPC      H14A           -0.2019334908       31.2631834707       19.3099063506  MEMB      48              0.0000000000
      6997        76  DOPC      H14B           -0.9990643807       30.5671338225       17.8555187507  MEMB      48              0.0000000000
      6998        76  DOPC      H14C            0.6900312437       30.5416622366       17.9483870812  MEMB      48              0.0000000000
      6999        76  DOPC      C15             0.7477834605       33.3974059221       17.9723014508  MEMB      48              0.0000000000
      7000        76  DOPC      H15A            1.7081828043       32.9052078198       17.9301827461  MEMB      48              0.0000000000
      7001        76  DOPC      H15B            0.5044135841       33.6253254801       18.9995422770  MEMB      48              0.0000000000
      7002        76  DOPC      H15C            0.6567063499       34.2954336538       17.3792995662  MEMB      48              0.0000000000
      7003        76  DOPC      C11            -1.9420152949       33.2383232669       19.5627048520  MEMB      48              0.0000000000
      7004        76  DOPC      H11A           -2.9982061813       33.5373676284       19.7340358486  MEMB      48              0.0000000000
      7005        76  DOPC      H11B           -1.9133559227       32.2589868102       20.0865367857  MEMB      48              0.0000000000
      7006        76  DOPC      P              -1.3996857857       35.7221505072       20.3950659486  MEMB      48              0.0000000000
      7007        76  DOPC      O13            -0.6018227684       36.4104780437       21.3781186386  MEMB      48              0.0000000000
      7008        76  DOPC      O14            -2.8767706059       35.8478487630       20.5290164004  MEMB      48              0.0000000000
      7009        76  DOPC      O12            -1.0683345833       34.1438108431       20.2395903957  MEMB      48              0.0000000000
      7010        76  DOPC      O11            -0.9590834373       36.2009163898       18.9646116065  MEMB      48              0.0000000000
      7011        76  DOPC      C1             -1.2232497406       37.5050173476       18.6204650634  MEMB      48              0.0000000000
      7012        76  DOPC      HA             -0.4856783852       38.2393902379       19.0090600794  MEMB      48              0.0000000000
      7013        76  DOPC      HB             -2.2110320304       37.8558421350       18.9886077837  MEMB      48              0.0000000000
      7014        76  DOPC      C2             -1.2179056044       37.7341150044       17.1099487880  MEMB      48              0.0000000000
      7015        76  DOPC      HS             -1.2383874996       38.8419586210       17.0288078992  MEMB      48              0.0000000000
      7016        76  DOPC      O21            -2.4821064260       37.2162941077       16.6334616975  MEMB      48              0.0000000000
      7017        76  DOPC      C21            -2.9796850777       37.6499791940       15.3895245350  MEMB      48              0.0000000000
      7018        76  DOPC      O22            -2.4568107037       38.4874152748       14.6774770406  MEMB      48              0.0000000000
      7019        76  DOPC      C22            -4.2741473028       36.8352624429       14.9292632529  MEMB      48              0.0000000000
      7020        76  DOPC      H2R            -4.2497888488       36.8240059413       13.8185873146  MEMB      48              0.0000000000
      7021        76  DOPC      H2S            -5.1949312910       37.3928548665       15.2041600332  MEMB      48              0.0000000000
      7022        76  DOPC      C3             -0.0741213485       37.1409319456       16.3154624288  MEMB      48              0.0000000000
      7023        76  DOPC      HX             -0.3891871808       36.0757640947       16.2937340218  MEMB      48              0.0000000000
      7024        76  DOPC      HY              0.8693110488       37.0131779673       16.8881187050  MEMB      48              0.0000000000
      7025        76  DOPC      O31             0.2536089278       37.6062643835       15.0139250397  MEMB      48              0.0000000000
      7026        76  DOPC      C31             1.3978878363       37.2423625262       14.4431195007  MEMB      48              0.0000000000
      7027        76  DOPC      O32             2.0123581153       36.2191592492       14.8094912906  MEMB      48              0.0000000000
      7028        76  DOPC      C32             1.7962908793       38.1261597385       13.2593432812  MEMB      48              0.0000000000
      7029        76  DOPC      H2X             2.0492765229       39.0974336398       13.7357325636  MEMB      48              0.0000000000
      7030        76  DOPC      H2Y             2.6812806212       37.8595855352       12.6428595959  MEMB      48              0.0000000000
      7031        76  DOPC      C23            -4.3796366926       35.4251081750       15.5793376068  MEMB      48              0.0000000000
      7032        76  DOPC      H3R            -5.3344318475       34.8884770220       15.3930185031  MEMB      48              0.0000000000
      7033        76  DOPC      H3S            -4.2671596479       35.5448552762       16.6781235599  MEMB      48              0.0000000000
      7034        76  DOPC      C24            -3.1845625457       34.5653649469       15.1761866120  MEMB      48              0.0000000000
      7035        76  DOPC      H4R            -3.2852627598       33.6114877505       15.7368100877  MEMB      48              0.0000000000
      7036        76  DOPC      H4S            -2.1780393143       34.9501352448       15.4467114448  MEMB      48              0.0000000000
      7037        76  DOPC      C25            -3.2210177124       34.0903092126       13.6889991449  MEMB      48              0.0000000000
      7038        76  DOPC      H5R            -3.1545126490       34.9956188524       13.0484426263  MEMB      48              0.0000000000
      7039        76  DOPC      H5S            -4.1463080134       33.5116871153       13.4807794750  MEMB      48              0.0000000000
      7040        76  DOPC      C26            -2.0191625335       33.1954891520       13.3117354925  MEMB      48              0.0000000000
      7041        76  DOPC      H6R            -2.1545257724       32.2491761691       13.8778532619  MEMB      48              0.0000000000
      7042        76  DOPC      H6S            -1.1704406555       33.8138646858       13.6745077894  MEMB      48              0.0000000000
      7043        76  DOPC      C27            -2.0126569347       32.7673075895       11.7999621349  MEMB      48              0.0000000000
      7044        76  DOPC      H7R            -1.8633064910       33.6941869190       11.2058996694  MEMB      48              0.0000000000
      7045        76  DOPC      H7S            -3.0346632930       32.4022464988       11.5621499884  MEMB      48              0.0000000000
      7046        76  DOPC      C28            -0.9775822331       31.6761876853       11.4877336745  MEMB      48              0.0000000000
      7047        76  DOPC      H8R            -1.2873703637       31.3066641393       10.4868319758  MEMB      48              0.0000000000
      7048        76  DOPC      H8S            -1.0624393712       30.8699308344       12.2473849432  MEMB      48              0.0000000000
      7049        76  DOPC      C29             0.4750381967       32.0944516775       11.5029737426  MEMB      48              0.0000000000
      7050        76  DOPC      H9R             0.7705162326       32.9691545619       12.1009600182  MEMB      48              0.0000000000
      7051        76  DOPC      C210            1.4631288468       31.4922347556       10.8817627133  MEMB      48              0.0000000000
      7052        76  DOPC      H10R            2.4561831961       31.9407755731       11.0322758185  MEMB      48              0.0000000000
      7053        76  DOPC      C211            1.3173376834       30.2722545746       10.0317259398  MEMB      48              0.0000000000
      7054        76  DOPC      H11R            0.2607392640       29.9378943196       10.1099813638  MEMB      48              0.0000000000
      7055        76  DOPC      H11S            1.7954903170       29.4273501852       10.5719367479  MEMB      48              0.0000000000
      7056        76  DOPC      C212            1.6740435380       30.3684648148        8.5477362100  MEMB      48              0.0000000000
      7057        76  DOPC      H12R            1.5377903414       29.3483627521        8.1292295337  MEMB      48              0.0000000000
      7058        76  DOPC      H12S            2.7696281480       30.4738369756        8.3963692640  MEMB      48              0.0000000000
      7059        76  DOPC      C213            0.7265245278       31.3527821691        7.8838032691  MEMB      48              0.0000000000
      7060        76  DOPC      H13R           -0.0481816769       31.7110917699        8.5949748088  MEMB      48              0.0000000000
      7061        76  DOPC      H13S            0.1186294405       30.7102157026        7.2115733278  MEMB      48              0.0000000000
      7062        76  DOPC      C214            1.4015209074       32.6020962716        7.1936258150  MEMB      48              0.0000000000
      7063        76  DOPC      H14R            2.1655702985       33.0795089206        7.8437234145  MEMB      48              0.0000000000
      7064        76  DOPC      H14S            0.5899979538       33.3449296969        7.0388675379  MEMB      48              0.0000000000
      7065        76  DOPC      C215            2.0888743532       32.1734514235        5.8637513312  MEMB      48              0.0000000000
      7066        76  DOPC      H15R            2.3673195970       31.1027958826        5.9661521077  MEMB      48              0.0000000000
      7067        76  DOPC      H15S            2.9295186527       32.8895651208        5.9854859908  MEMB      48              0.0000000000
      7068        76  DOPC      C216            1.2359601172       32.5185535408        4.6833855612  MEMB      48              0.0000000000
      7069        76  DOPC      H16R            1.2200878494       33.6287332615        4.7230112795  MEMB      48              0.0000000000
      7070        76  DOPC      H16S            0.2369824113       32.0652142121        4.8590224456  MEMB      48              0.0000000000
      7071        76  DOPC      C217            1.8643199447       31.9166529561        3.3652244809  MEMB      48              0.0000000000
      7072        76  DOPC      H17R            1.2301301463       32.0451823440        2.4621160842  MEMB      48              0.0000000000
      7073        76  DOPC      H17S            1.8329226366       30.8146088982        3.5024617673  MEMB      48              0.0000000000
      7074        76  DOPC      C218            3.2272443675       32.4848724204        2.9977932090  MEMB      48              0.0000000000
      7075        76  DOPC      H18R            3.2663529693       33.5806655465        3.1767591709  MEMB      48              0.0000000000
      7076        76  DOPC      H18S            3.5371191565       32.3133688005        1.9447567844  MEMB      48              0.0000000000
      7077        76  DOPC      H18T            3.9904827584       31.9916815152        3.6369732091  MEMB      48              0.0000000000
      7078        76  DOPC      C33             0.5756840471       38.1229396117       12.2615273270  MEMB      48              0.0000000000
      7079        76  DOPC      H3X             0.7433747502       38.8192848699       11.4122314080  MEMB      48              0.0000000000
      7080        76  DOPC      H3Y            -0.3614085361       38.4124313355       12.7834207990  MEMB      48              0.0000000000
      7081        76  DOPC      C34             0.2641924983       36.6851699826       11.7301237081  MEMB      48              0.0000000000
      7082        76  DOPC      H4X            -0.7099785325       36.8462168549       11.2208344555  MEMB      48              0.0000000000
      7083        76  DOPC      H4Y             0.1860762835       35.9208597312       12.5326501646  MEMB      48              0.0000000000
      7084        76  DOPC      C35             1.1434229469       36.0505057374       10.6023253058  MEMB      48              0.0000000000
      7085        76  DOPC      H5X             1.8346638743       35.3812169118       11.1578067396  MEMB      48              0.0000000000
      7086        76  DOPC      H5Y             1.8004829905       36.8452235011       10.1887831857  MEMB      48              0.0000000000
      7087        76  DOPC      C36             0.4115427192       35.3076632933        9.4523226880  MEMB      48              0.0000000000
      7088        76  DOPC      H6X             1.2218014343       34.7345500569        8.9529800050  MEMB      48              0.0000000000
      7089        76  DOPC      H6Y            -0.3236705000       34.6022287068        9.8952047001  MEMB      48              0.0000000000
      7090        76  DOPC      C37            -0.3215143498       36.2947928927        8.4740634564  MEMB      48              0.0000000000
      7091        76  DOPC      H7X            -0.7585946932       37.1188692470        9.0775366264  MEMB      48              0.0000000000
      7092        76  DOPC      H7Y             0.4665148852       36.8640848026        7.9362555280  MEMB      48              0.0000000000
      7093        76  DOPC      C38            -1.4005508751       35.5984134780        7.6707608948  MEMB      48              0.0000000000
      7094        76  DOPC      H8X            -0.9009745052       34.8307766248        7.0418910211  MEMB      48              0.0000000000
      7095        76  DOPC      H8Y            -1.5997935726       36.3944627985        6.9218096968  MEMB      48              0.0000000000
      7096        76  DOPC      C39            -2.6559997013       35.2185825717        8.3961430820  MEMB      48              0.0000000000
      7097        76  DOPC      H9X            -3.0355082730       35.9972359291        9.0741350315  MEMB      48              0.0000000000
      7098        76  DOPC      C310           -3.2209275940       34.0098498504        8.3504601012  MEMB      48              0.0000000000
      7099        76  DOPC      H10X           -4.1654506073       33.7545345492        8.8531433389  MEMB      48              0.0000000000
      7100        76  DOPC      C311           -2.7566534407       32.8031201174        7.5124733352  MEMB      48              0.0000000000
      7101        76  DOPC      H11X           -2.9240488529       31.8556118371        8.0679265660  MEMB      48              0.0000000000
      7102        76  DOPC      H11Y           -1.6524966197       32.9203236828        7.4747613388  MEMB      48              0.0000000000
      7103        76  DOPC      C312           -3.3278087372       32.6258572901        6.0741064776  MEMB      48              0.0000000000
      7104        76  DOPC      H12X           -4.3671152755       32.2377710174        6.1337059660  MEMB      48              0.0000000000
      7105        76  DOPC      H12Y           -2.5945374492       31.9115330552        5.6423941907  MEMB      48              0.0000000000
      7106        76  DOPC      C313           -3.3210360652       33.9715446417        5.2678801118  MEMB      48              0.0000000000
      7107        76  DOPC      H13X           -3.9732015730       34.7775903632        5.6669936778  MEMB      48              0.0000000000
      7108        76  DOPC      H13Y           -2.2692140525       34.3163697466        5.3632068670  MEMB      48              0.0000000000
      7109        76  DOPC      C314           -3.4373863832       33.6690466798        3.7871692827  MEMB      48              0.0000000000
      7110        76  DOPC      H14X           -3.0442377644       32.6635933581        3.5248353439  MEMB      48              0.0000000000
      7111        76  DOPC      H14Y           -4.5304466670       33.6466859184        3.5895826949  MEMB      48              0.0000000000
      7112        76  DOPC      C315           -2.9685870881       34.6508283365        2.7330024325  MEMB      48              0.0000000000
      7113        76  DOPC      H15X           -3.6769864857       35.5064581780        2.7527249115  MEMB      48              0.0000000000
      7114        76  DOPC      H15Y           -2.9626927796       34.1908316462        1.7217213560  MEMB      48              0.0000000000
      7115        76  DOPC      C316           -1.5915824731       35.3532594080        3.0336668976  MEMB      48              0.0000000000
      7116        76  DOPC      H16X           -1.4808501960       35.8704264324        4.0107019834  MEMB      48              0.0000000000
      7117        76  DOPC      H16Y           -0.7630140039       34.6167595887        2.9604343812  MEMB      48              0.0000000000
      7118        76  DOPC      C317           -1.2515008867       36.4906618898        2.1274608487  MEMB      48              0.0000000000
      7119        76  DOPC      H17X           -2.0561717674       37.2531134070        2.0533443614  MEMB      48              0.0000000000
      7120        76  DOPC      H17Y           -0.3826503885       37.0424410314        2.5457440868  MEMB      48              0.0000000000
      7121        76  DOPC      C318           -0.8710610210       36.1712161080        0.7144082658  MEMB      48              0.0000000000
      7122        76  DOPC      H18X           -1.3942436762       35.2156803391        0.4963415073  MEMB      48              0.0000000000
      7123        76  DOPC      H18Y           -1.2290175161       37.0685131411        0.1657318816  MEMB      48              0.0000000000
      7124        76  DOPC      H18Z            0.2094428224       35.9698148557        0.5523272827  MEMB      48              0.0000000000
      7125        77  DOPC      N               7.2969884961      -35.1709032268       20.9279063068  MEMB      49              0.0000000000
      7126        77  DOPC      C12             6.9423937280      -33.9002567419       20.2752237968  MEMB      49              0.0000000000
      7127        77  DOPC      H12A            6.7282294628      -33.1577220461       21.0296613516  MEMB      49              0.0000000000
      7128        77  DOPC      H12B            6.1334556604      -34.1306109646       19.5977607828  MEMB      49              0.0000000000
      7129        77  DOPC      C13             6.1224964080      -35.5672193884       21.8603212690  MEMB      49              0.0000000000
      7130        77  DOPC      H13A            6.3672657801      -36.5668442954       22.1877933837  MEMB      49              0.0000000000
      7131        77  DOPC      H13B            6.1250042618      -34.9715556072       22.7611977393  MEMB      49              0.0000000000
      7132        77  DOPC      H13C            5.2442446452      -35.7702687133       21.2654727048  MEMB      49              0.0000000000
      7133        77  DOPC      C14             8.5378571452      -35.1022121589       21.7532985732  MEMB      49              0.0000000000
      7134        77  DOPC      H14A            8.2503221226      -34.4246600827       22.5436445737  MEMB      49              0.0000000000
      7135        77  DOPC      H14B            8.8648744960      -36.0729197484       22.0956233737  MEMB      49              0.0000000000
      7136        77  DOPC      H14C            9.3496737237      -34.6195824806       21.2294450633  MEMB      49              0.0000000000
      7137        77  DOPC      C15             7.3296171005      -36.3096981315       19.9784872237  MEMB      49              0.0000000000
      7138        77  DOPC      H15A            6.4102095625      -36.2211331345       19.4188032158  MEMB      49              0.0000000000
      7139        77  DOPC      H15B            7.4253812271      -37.2127927445       20.5629949936  MEMB      49              0.0000000000
      7140        77  DOPC      H15C            8.1861468652      -36.2149544488       19.3275029010  MEMB      49              0.0000000000
      7141        77  DOPC      C11             8.0174544670      -33.3272872524       19.3991661500  MEMB      49              0.0000000000
      7142        77  DOPC      H11A            8.0162432496      -32.2473082899       19.1384651821  MEMB      49              0.0000000000
      7143        77  DOPC      H11B            8.9197159278      -33.3081163380       20.0471458207  MEMB      49              0.0000000000
      7144        77  DOPC      P               7.4276975903      -33.9075811830       16.9436929876  MEMB      49              0.0000000000
      7145        77  DOPC      O13             7.7265752044      -32.5008108542       16.5122767303  MEMB      49              0.0000000000
      7146        77  DOPC      O14             6.0524639501      -34.3990165185       17.1030128097  MEMB      49              0.0000000000
      7147        77  DOPC      O12             8.3228389797      -34.1535113412       18.2434148868  MEMB      49              0.0000000000
      7148        77  DOPC      O11             8.0717333893      -34.8746342052       16.0031992632  MEMB      49              0.0000000000
      7149        77  DOPC      C1              8.7744003464      -36.0538065836       16.3312807526  MEMB      49              0.0000000000
      7150        77  DOPC      HA              8.2705033538      -36.5975883918       17.1587529221  MEMB      49              0.0000000000
      7151        77  DOPC      HB              9.6814060454      -35.6250023471       16.8085529962  MEMB      49              0.0000000000
      7152        77  DOPC      C2              8.8798371650      -37.0636964868       15.2127201969  MEMB      49              0.0000000000
      7153        77  DOPC      HS              9.8364567459      -37.6234806078       15.2891520547  MEMB      49              0.0000000000
      7154        77  DOPC      O21             8.8951333030      -36.3983279926       13.9376536992  MEMB      49              0.0000000000
      7155        77  DOPC      C21             9.0079890749      -37.0364902601       12.8382310734  MEMB      49              0.0000000000
      7156        77  DOPC      O22             9.2161683431      -38.2207042334       12.6063011789  MEMB      49              0.0000000000
      7157        77  DOPC      C22             8.8529226706      -35.9851739861       11.6706996088  MEMB      49              0.0000000000
      7158        77  DOPC      H2R             9.6816881818      -35.2484942625       11.7397751725  MEMB      49              0.0000000000
      7159        77  DOPC      H2S             7.9005254950      -35.4272631345       11.7971757025  MEMB      49              0.0000000000
      7160        77  DOPC      C3              7.8309729721      -38.2153989079       15.2173908572  MEMB      49              0.0000000000
      7161        77  DOPC      HX              7.9573231330      -38.7367607636       16.1902929491  MEMB      49              0.0000000000
      7162        77  DOPC      HY              8.0571731642      -38.9798574051       14.4435963445  MEMB      49              0.0000000000
      7163        77  DOPC      O31             6.4765174892      -37.7900261799       15.0994105210  MEMB      49              0.0000000000
      7164        77  DOPC      C31             5.5068805889      -38.7627643224       15.0381806372  MEMB      49              0.0000000000
      7165        77  DOPC      O32             5.7576652800      -39.9844479800       15.0062486464  MEMB      49              0.0000000000
      7166        77  DOPC      C32             4.0828951552      -38.2178462405       15.1259442488  MEMB      49              0.0000000000
      7167        77  DOPC      H2X             3.3833511496      -39.0757470746       15.2206276810  MEMB      49              0.0000000000
      7168        77  DOPC      H2Y             3.8862477561      -37.5348852570       15.9798851192  MEMB      49              0.0000000000
      7169        77  DOPC      C23             8.7995580016      -36.5629570314       10.2194533626  MEMB      49              0.0000000000
      7170        77  DOPC      H3R             7.9382584377      -37.2377385820       10.0267004913  MEMB      49              0.0000000000
      7171        77  DOPC      H3S             9.7521900567      -37.1332622807       10.1798940357  MEMB      49              0.0000000000
      7172        77  DOPC      C24             8.8108913805      -35.6300005397        8.9763525089  MEMB      49              0.0000000000
      7173        77  DOPC      H4R             9.0107327774      -36.1096831690        7.9943698840  MEMB      49              0.0000000000
      7174        77  DOPC      H4S             9.4912928233      -34.7764315384        9.1832220119  MEMB      49              0.0000000000
      7175        77  DOPC      C25             7.3834759291      -35.0626564599        8.7438333533  MEMB      49              0.0000000000
      7176        77  DOPC      H5R             6.6735101540      -35.0396388875        9.5980808625  MEMB      49              0.0000000000
      7177        77  DOPC      H5S             6.8610528295      -35.7596603578        8.0542091412  MEMB      49              0.0000000000
      7178        77  DOPC      C26             7.3295336172      -33.6564968277        8.1653579996  MEMB      49              0.0000000000
      7179        77  DOPC      H6R             7.9170453471      -33.5084284645        7.2341079652  MEMB      49              0.0000000000
      7180        77  DOPC      H6S             7.7172059658      -32.9249624522        8.9062280167  MEMB      49              0.0000000000
      7181        77  DOPC      C27             5.9375131670      -33.2914836464        7.8104553203  MEMB      49              0.0000000000
      7182        77  DOPC      H7R             5.2710870044      -33.4437600170        8.6862461914  MEMB      49              0.0000000000
      7183        77  DOPC      H7S             5.7063059521      -34.1093342319        7.0949248930  MEMB      49              0.0000000000
      7184        77  DOPC      C28             5.7329480552      -31.9461450860        7.2364004623  MEMB      49              0.0000000000
      7185        77  DOPC      H8R             6.3808773780      -31.9640081479        6.3340766459  MEMB      49              0.0000000000
      7186        77  DOPC      H8S             6.1052336959      -31.1898541739        7.9601055554  MEMB      49              0.0000000000
      7187        77  DOPC      C29             4.3440761608      -31.6461863445        6.8286594771  MEMB      49              0.0000000000
      7188        77  DOPC      H9R             3.7002284770      -31.3285292370        7.6620592642  MEMB      49              0.0000000000
      7189        77  DOPC      C210            3.8179932277      -31.7952091720        5.6031062375  MEMB      49              0.0000000000
      7190        77  DOPC      H10R            2.7652715711      -31.5326742432        5.4218549675  MEMB      49              0.0000000000
      7191        77  DOPC      C211            4.4409856998      -32.3447377312        4.3312964831  MEMB      49              0.0000000000
      7192        77  DOPC      H11R            5.5506742921      -32.3384954905        4.2776907360  MEMB      49              0.0000000000
      7193        77  DOPC      H11S            4.0652144820      -31.8157910046        3.4294472280  MEMB      49              0.0000000000
      7194        77  DOPC      C212            3.8882657423      -33.7363499798        4.1174982022  MEMB      49              0.0000000000
      7195        77  DOPC      H12R            2.8656409195      -33.8270897945        4.5421467337  MEMB      49              0.0000000000
      7196        77  DOPC      H12S            4.5344532711      -34.4325879771        4.6937055237  MEMB      49              0.0000000000
      7197        77  DOPC      C213            3.6854474623      -34.2001911653        2.6407387800  MEMB      49              0.0000000000
      7198        77  DOPC      H13R            4.6620830789      -34.3905660846        2.1465109360  MEMB      49              0.0000000000
      7199        77  DOPC      H13S            3.2987049500      -33.3018373322        2.1137563753  MEMB      49              0.0000000000
      7200        77  DOPC      C214            2.6378797978      -35.2456851815        2.5170139374  MEMB      49              0.0000000000
      7201        77  DOPC      H14R            1.6172738112      -34.9364483561        2.8285552194  MEMB      49              0.0000000000
      7202        77  DOPC      H14S            3.0000163847      -36.0446911894        3.1987531991  MEMB      49              0.0000000000
      7203        77  DOPC      C215            2.6077955089      -35.7846360497        1.1293534973  MEMB      49              0.0000000000
      7204        77  DOPC      H15R            2.3640011132      -34.8976556495        0.5063364999  MEMB      49              0.0000000000
      7205        77  DOPC      H15S            1.7454237642      -36.4849098353        1.1452669790  MEMB      49              0.0000000000
      7206        77  DOPC      C216            3.8720147376      -36.5890187757        0.6533845612  MEMB      49              0.0000000000
      7207        77  DOPC      H16R            4.0529149850      -37.4132815195        1.3760108717  MEMB      49              0.0000000000
      7208        77  DOPC      H16S            4.6992643226      -35.8475628257        0.6384845252  MEMB      49              0.0000000000
      7209        77  DOPC      C217            3.6914787561      -37.0842484725       -0.7661972501  MEMB      49              0.0000000000
      7210        77  DOPC      H17R            3.1610576678      -36.2757713445       -1.3133158803  MEMB      49              0.0000000000
      7211        77  DOPC      H17S            2.9436820281      -37.8704904738       -0.5275676189  MEMB      49              0.0000000000
      7212        77  DOPC      C218            4.8233220489      -37.6182672400       -1.6536973409  MEMB      49              0.0000000000
      7213        77  DOPC      H18R            4.4457071531      -37.9773401482       -2.6349190897  MEMB      49              0.0000000000
      7214        77  DOPC      H18S            5.4273671210      -38.3576848408       -1.0856201044  MEMB      49              0.0000000000
      7215        77  DOPC      H18T            5.3054505269      -36.6395605029       -1.8634751624  MEMB      49              0.0000000000
      7216        77  DOPC      C33             3.7729972288      -37.3140281377       13.9166177332  MEMB      49              0.0000000000
      7217        77  DOPC      H3X             4.1504856224      -36.2701928460       13.9638505679  MEMB      49              0.0000000000
      7218        77  DOPC      H3Y             2.6735276659      -37.1785274441       13.8321962614  MEMB      49              0.0000000000
      7219        77  DOPC      C34             4.1830508365      -37.9166760051       12.5663291268  MEMB      49              0.0000000000
      7220        77  DOPC      H4X             3.7501305473      -38.9285954463       12.4149359375  MEMB      49              0.0000000000
      7221        77  DOPC      H4Y             5.2912523179      -37.9672421060       12.5058866682  MEMB      49              0.0000000000
      7222        77  DOPC      C35             3.7363751180      -37.1094654301       11.3591233214  MEMB      49              0.0000000000
      7223        77  DOPC      H5X             4.0118632026      -36.0334783320       11.3330681437  MEMB      49              0.0000000000
      7224        77  DOPC      H5Y             2.6328624217      -37.1566939417       11.2393304691  MEMB      49              0.0000000000
      7225        77  DOPC      C36             4.4678463042      -37.7619062696       10.1998226389  MEMB      49              0.0000000000
      7226        77  DOPC      H6X             5.5538761476      -37.5487205756       10.2968398886  MEMB      49              0.0000000000
      7227        77  DOPC      H6Y             4.3740983872      -38.8636545434       10.3079102135  MEMB      49              0.0000000000
      7228        77  DOPC      C37             3.9827163413      -37.3680044242        8.8715841658  MEMB      49              0.0000000000
      7229        77  DOPC      H7X             2.9381771056      -37.7435019572        8.9191334953  MEMB      49              0.0000000000
      7230        77  DOPC      H7Y             3.9570519720      -36.2580914197        8.9134818844  MEMB      49              0.0000000000
      7231        77  DOPC      C38             4.6230783285      -38.0756985985        7.7195521888  MEMB      49              0.0000000000
      7232        77  DOPC      H8X             4.3412259242      -39.1465719657        7.8096127539  MEMB      49              0.0000000000
      7233        77  DOPC      H8Y             5.7176494995      -38.1148290411        7.9058418993  MEMB      49              0.0000000000
      7234        77  DOPC      C39             4.1474441053      -37.5972388176        6.3330291739  MEMB      49              0.0000000000
      7235        77  DOPC      H9X             3.0801007619      -37.3613463268        6.2100154661  MEMB      49              0.0000000000
      7236        77  DOPC      C310            4.9985661963      -37.3424091533        5.2939807718  MEMB      49              0.0000000000
      7237        77  DOPC      H10X            4.6708453511      -36.8972888936        4.3429459607  MEMB      49              0.0000000000
      7238        77  DOPC      C311            6.5174120713      -37.4537370928        5.2455613587  MEMB      49              0.0000000000
      7239        77  DOPC      H11X            6.7884966552      -38.4908154320        4.9534953999  MEMB      49              0.0000000000
      7240        77  DOPC      H11Y            6.9229337499      -37.4080550922        6.2788986349  MEMB      49              0.0000000000
      7241        77  DOPC      C312            7.2229705461      -36.4297019230        4.3645595945  MEMB      49              0.0000000000
      7242        77  DOPC      H12X            8.3001126381      -36.6844050682        4.4605397802  MEMB      49              0.0000000000
      7243        77  DOPC      H12Y            7.0575258326      -35.4141909270        4.7837093037  MEMB      49              0.0000000000
      7244        77  DOPC      C313            7.0233728737      -36.5427798392        2.8541061207  MEMB      49              0.0000000000
      7245        77  DOPC      H13X            6.8778241569      -37.6240528192        2.6443791505  MEMB      49              0.0000000000
      7246        77  DOPC      H13Y            6.0893371298      -35.9993240545        2.5961248849  MEMB      49              0.0000000000
      7247        77  DOPC      C314            8.1202559980      -35.7878901932        2.0208200866  MEMB      49              0.0000000000
      7248        77  DOPC      H14X            8.9209232290      -36.5579142283        2.0030377284  MEMB      49              0.0000000000
      7249        77  DOPC      H14Y            7.9527736695      -35.8133210726        0.9228113045  MEMB      49              0.0000000000
      7250        77  DOPC      C315            8.5384506473      -34.4082250870        2.4346047199  MEMB      49              0.0000000000
      7251        77  DOPC      H15X            9.0682153090      -34.5290419773        3.4036623846  MEMB      49              0.0000000000
      7252        77  DOPC      H15Y            7.6806873573      -33.7112788047        2.5478700364  MEMB      49              0.0000000000
      7253        77  DOPC      C316            9.5793278398      -33.7842002522        1.4711395567  MEMB      49              0.0000000000
      7254        77  DOPC      H16X            9.1943734701      -33.4754158682        0.4757586676  MEMB      49              0.0000000000
      7255        77  DOPC      H16Y            9.7708680139      -32.8034119944        1.9566157085  MEMB      49              0.0000000000
      7256        77  DOPC      C317           10.9124099049      -34.6425399655        1.3448456452  MEMB      49              0.0000000000
      7257        77  DOPC      H17X           11.3385640314      -34.9040649542        2.3369723551  MEMB      49              0.0000000000
      7258        77  DOPC      H17Y           10.6597190150      -35.6059535020        0.8526025216  MEMB      49              0.0000000000
      7259        77  DOPC      C318           12.0513427566      -33.9106801330        0.5185556944  MEMB      49              0.0000000000
      7260        77  DOPC      H18X           11.8811324189      -32.8251437467        0.6827490559  MEMB      49              0.0000000000
      7261        77  DOPC      H18Y           13.0750220976      -34.2497098817        0.7858762916  MEMB      49              0.0000000000
      7262        77  DOPC      H18Z           11.8357208401      -34.0296920545       -0.5648032202  MEMB      49              0.0000000000
      7263        78  DOPC      N             -36.1094397668       10.6047636427       18.6142078197  MEMB      50              0.0000000000
      7264        78  DOPC      C12           -35.9479806025       11.9583350593       17.8917671755  MEMB      50              0.0000000000
      7265        78  DOPC      H12A          -36.6283680758       12.6485894064       18.3682354400  MEMB      50              0.0000000000
      7266        78  DOPC      H12B          -36.2389192946       11.8779044904       16.8548073538  MEMB      50              0.0000000000
      7267        78  DOPC      C13           -36.2605129311       10.8767979827       20.1007519904  MEMB      50              0.0000000000
      7268        78  DOPC      H13A          -37.1422860852       11.4660609790       20.3048236097  MEMB      50              0.0000000000
      7269        78  DOPC      H13B          -36.3349624685        9.9332731861       20.6209619459  MEMB      50              0.0000000000
      7270        78  DOPC      H13C          -35.3527320887       11.3333919916       20.4666150369  MEMB      50              0.0000000000
      7271        78  DOPC      C14           -34.8733915729        9.7064426409       18.3550984862  MEMB      50              0.0000000000
      7272        78  DOPC      H14A          -33.9639264159       10.1974357877       18.6684655209  MEMB      50              0.0000000000
      7273        78  DOPC      H14B          -35.0284590911        8.7779050628       18.8844114598  MEMB      50              0.0000000000
      7274        78  DOPC      H14C          -34.9366666880        9.4518959736       17.3074334112  MEMB      50              0.0000000000
      7275        78  DOPC      C15           -37.2871227669        9.7487134494       18.0232085427  MEMB      50              0.0000000000
      7276        78  DOPC      H15A          -37.2610612083        8.8264641204       18.5846149074  MEMB      50              0.0000000000
      7277        78  DOPC      H15B          -36.9583883643        9.6421342038       16.9999908434  MEMB      50              0.0000000000
      7278        78  DOPC      H15C          -38.2016362124       10.3140128603       18.1256860977  MEMB      50              0.0000000000
      7279        78  DOPC      C11           -34.4688666518       12.5852579648       17.8607870783  MEMB      50              0.0000000000
      7280        78  DOPC      H11A          -33.9352605587       11.9592027185       17.1140338129  MEMB      50              0.0000000000
      7281        78  DOPC      H11B          -34.5737520824       13.6355756843       17.5141565663  MEMB      50              0.0000000000
      7282        78  DOPC      P             -32.7757717607       13.5099217193       19.7235664061  MEMB      50              0.0000000000
      7283        78  DOPC      O13           -31.6913648835       12.7898618561       20.4384790955  MEMB      50              0.0000000000
      7284        78  DOPC      O14           -33.5255419560       14.6058991848       20.3669573833  MEMB      50              0.0000000000
      7285        78  DOPC      O12           -33.8279689898       12.4818602712       19.1706295713  MEMB      50              0.0000000000
      7286        78  DOPC      O11           -32.0469977457       14.1644324158       18.4545464507  MEMB      50              0.0000000000
      7287        78  DOPC      C1            -31.2831615140       13.3386186289       17.6288760125  MEMB      50              0.0000000000
      7288        78  DOPC      HA            -31.9403219467       12.6795547976       17.0221667020  MEMB      50              0.0000000000
      7289        78  DOPC      HB            -30.7355698685       12.6434175892       18.3005602806  MEMB      50              0.0000000000
      7290        78  DOPC      C2            -30.3322021292       14.0905635218       16.7628651659  MEMB      50              0.0000000000
      7291        78  DOPC      HS            -29.4780792969       14.5127662390       17.3343016579  MEMB      50              0.0000000000
      7292        78  DOPC      O21           -31.0400501253       14.9758621174       15.9174262106  MEMB      50              0.0000000000
      7293        78  DOPC      C21           -31.2105767248       16.2121105360       16.3809076526  MEMB      50              0.0000000000
      7294        78  DOPC      O22           -30.9688294086       16.6670549391       17.5011820441  MEMB      50              0.0000000000
      7295        78  DOPC      C22           -32.0833926099       16.8347802944       15.3326931473  MEMB      50              0.0000000000
      7296        78  DOPC      H2R           -31.5502994794       16.7601453716       14.3608074136  MEMB      50              0.0000000000
      7297        78  DOPC      H2S           -32.2641349492       17.9207966743       15.4817635725  MEMB      50              0.0000000000
      7298        78  DOPC      C3            -29.6561979893       13.1270949667       15.8184074595  MEMB      50              0.0000000000
      7299        78  DOPC      HX            -30.3844843389       12.4438051910       15.3315453575  MEMB      50              0.0000000000
      7300        78  DOPC      HY            -28.8762412041       12.7122207668       16.4921049513  MEMB      50              0.0000000000
      7301        78  DOPC      O31           -28.9617377429       13.8581033675       14.7355371311  MEMB      50              0.0000000000
      7302        78  DOPC      C31           -29.2100098473       13.7322012514       13.5170639993  MEMB      50              0.0000000000
      7303        78  DOPC      O32           -29.9309308884       12.9052718509       12.9745749295  MEMB      50              0.0000000000
      7304        78  DOPC      C32           -28.4061542011       14.8405619104       12.8247803277  MEMB      50              0.0000000000
      7305        78  DOPC      H2X           -28.6391844925       15.7908724331       13.3510197944  MEMB      50              0.0000000000
      7306        78  DOPC      H2Y           -27.3100676635       14.6659909719       12.7753762524  MEMB      50              0.0000000000
      7307        78  DOPC      C23           -33.5083121485       16.1695182730       15.2386993440  MEMB      50              0.0000000000
      7308        78  DOPC      H3R           -34.1477833710       16.9581246714       14.7875922011  MEMB      50              0.0000000000
      7309        78  DOPC      H3S           -33.9587978104       15.8861178984       16.2139264043  MEMB      50              0.0000000000
      7310        78  DOPC      C24           -33.6168238353       14.8955035139       14.3256175103  MEMB      50              0.0000000000
      7311        78  DOPC      H4R           -33.0322022208       14.0794330646       14.8016087431  MEMB      50              0.0000000000
      7312        78  DOPC      H4S           -33.1513647680       15.2016520327       13.3643983336  MEMB      50              0.0000000000
      7313        78  DOPC      C25           -35.0455888887       14.3555773881       14.1374867831  MEMB      50              0.0000000000
      7314        78  DOPC      H5R           -35.6422149640       14.1625792064       15.0546069893  MEMB      50              0.0000000000
      7315        78  DOPC      H5S           -34.9341974654       13.3705333281       13.6358882658  MEMB      50              0.0000000000
      7316        78  DOPC      C26           -35.9560686964       15.0944865918       13.0247199099  MEMB      50              0.0000000000
      7317        78  DOPC      H6R           -36.1828376989       16.0080501960       13.6148878232  MEMB      50              0.0000000000
      7318        78  DOPC      H6S           -36.8895959222       14.4943698564       13.0767579553  MEMB      50              0.0000000000
      7319        78  DOPC      C27           -35.3622788590       15.4192296167       11.6104672436  MEMB      50              0.0000000000
      7320        78  DOPC      H7R           -34.6173992337       16.2316832881       11.7497301372  MEMB      50              0.0000000000
      7321        78  DOPC      H7S           -36.1533180978       15.8467247081       10.9579138827  MEMB      50              0.0000000000
      7322        78  DOPC      C28           -34.6567840883       14.3087400917       10.7863362470  MEMB      50              0.0000000000
      7323        78  DOPC      H8R           -33.8064939475       14.1035551728       11.4713376542  MEMB      50              0.0000000000
      7324        78  DOPC      H8S           -34.3403003004       14.8013721902        9.8421583531  MEMB      50              0.0000000000
      7325        78  DOPC      C29           -35.6024830637       13.1152873205       10.5443767162  MEMB      50              0.0000000000
      7326        78  DOPC      H9R           -36.5588655520       13.4960158534       10.1565906494  MEMB      50              0.0000000000
      7327        78  DOPC      C210          -35.3035478282       11.7696734775       10.6796888902  MEMB      50              0.0000000000
      7328        78  DOPC      H10R          -36.0833826900       11.1460306087       10.2182485349  MEMB      50              0.0000000000
      7329        78  DOPC      C211          -34.0145754487       11.1399088840       11.0528915122  MEMB      50              0.0000000000
      7330        78  DOPC      H11R          -34.0992794286       10.4912222330       11.9508626771  MEMB      50              0.0000000000
      7331        78  DOPC      H11S          -33.2330832019       11.9215684987       11.1651378707  MEMB      50              0.0000000000
      7332        78  DOPC      C212          -33.6806248196       10.1483655669        9.9082065481  MEMB      50              0.0000000000
      7333        78  DOPC      H12R          -34.4649048148        9.3644223460        9.9764617692  MEMB      50              0.0000000000
      7334        78  DOPC      H12S          -32.7023237576        9.6593027910       10.1033105793  MEMB      50              0.0000000000
      7335        78  DOPC      C213          -33.4024118392       10.6465337102        8.4630175334  MEMB      50              0.0000000000
      7336        78  DOPC      H13R          -32.3609762039       11.0252764380        8.3837254943  MEMB      50              0.0000000000
      7337        78  DOPC      H13S          -34.1392118003       11.4281316924        8.1792017393  MEMB      50              0.0000000000
      7338        78  DOPC      C214          -33.4387171846        9.5021867099        7.4709705236  MEMB      50              0.0000000000
      7339        78  DOPC      H14R          -34.4757021725        9.1040863975        7.4933152877  MEMB      50              0.0000000000
      7340        78  DOPC      H14S          -32.7844472758        8.7108415718        7.8952641767  MEMB      50              0.0000000000
      7341        78  DOPC      C215          -33.0448117676        9.7681494354        6.0664559888  MEMB      50              0.0000000000
      7342        78  DOPC      H15R          -32.2814858078       10.5749105756        6.0383301576  MEMB      50              0.0000000000
      7343        78  DOPC      H15S          -33.9479988275       10.0536483681        5.4858833325  MEMB      50              0.0000000000
      7344        78  DOPC      C216          -32.6219770842        8.4717772285        5.2784317510  MEMB      50              0.0000000000
      7345        78  DOPC      H16R          -33.3318515720        7.6288827573        5.4195999697  MEMB      50              0.0000000000
      7346        78  DOPC      H16S          -31.6614598639        8.0868119814        5.6828193356  MEMB      50              0.0000000000
      7347        78  DOPC      C217          -32.5662331016        8.6788434351        3.7516742101  MEMB      50              0.0000000000
      7348        78  DOPC      H17R          -31.9089281112        9.5493060122        3.5405682054  MEMB      50              0.0000000000
      7349        78  DOPC      H17S          -33.5860943730        8.9234275603        3.3850917333  MEMB      50              0.0000000000
      7350        78  DOPC      C218          -31.9999342547        7.4923260392        3.0327149749  MEMB      50              0.0000000000
      7351        78  DOPC      H18R          -30.9989399720        7.1471254612        3.3691196726  MEMB      50              0.0000000000
      7352        78  DOPC      H18S          -31.8838825652        7.7612568555        1.9610206993  MEMB      50              0.0000000000
      7353        78  DOPC      H18T          -32.7781308996        6.6994032009        3.0346953628  MEMB      50              0.0000000000
      7354        78  DOPC      C33           -29.0272189034       14.9011953401       11.3517496542  MEMB      50              0.0000000000
      7355        78  DOPC      H3X           -28.8731558360       13.9068212191       10.8807866702  MEMB      50              0.0000000000
      7356        78  DOPC      H3Y           -28.2409536223       15.4722573070       10.8132355521  MEMB      50              0.0000000000
      7357        78  DOPC      C34           -30.4303532226       15.5304664819       11.2553485493  MEMB      50              0.0000000000
      7358        78  DOPC      H4X           -30.3976841169       16.5805629343       11.6166677201  MEMB      50              0.0000000000
      7359        78  DOPC      H4Y           -31.1462052081       14.9714716253       11.8951938770  MEMB      50              0.0000000000
      7360        78  DOPC      C35           -30.9875678758       15.6020968074        9.7794441915  MEMB      50              0.0000000000
      7361        78  DOPC      H5X           -30.2322662935       16.0505164996        9.0991789649  MEMB      50              0.0000000000
      7362        78  DOPC      H5Y           -31.9226353557       16.2010433537        9.7443326655  MEMB      50              0.0000000000
      7363        78  DOPC      C36           -31.3594694067       14.2105624753        9.1507067915  MEMB      50              0.0000000000
      7364        78  DOPC      H6X           -30.4043121504       13.6668685442        9.3131644676  MEMB      50              0.0000000000
      7365        78  DOPC      H6Y           -32.1139195337       13.7932140382        9.8513832655  MEMB      50              0.0000000000
      7366        78  DOPC      C37           -31.9939770029       14.3013080931        7.7190249810  MEMB      50              0.0000000000
      7367        78  DOPC      H7X           -32.9853812156       13.8055934198        7.7945605528  MEMB      50              0.0000000000
      7368        78  DOPC      H7Y           -32.2381166861       15.3793077789        7.6066253860  MEMB      50              0.0000000000
      7369        78  DOPC      C38           -31.1686377006       13.7719861455        6.5671471094  MEMB      50              0.0000000000
      7370        78  DOPC      H8X           -31.8767611663       14.0981842904        5.7756441268  MEMB      50              0.0000000000
      7371        78  DOPC      H8Y           -31.2388354119       12.6780496046        6.7479678817  MEMB      50              0.0000000000
      7372        78  DOPC      C39           -29.7837037087       14.4260130743        6.4779859353  MEMB      50              0.0000000000
      7373        78  DOPC      H9X           -29.2644313342       14.4435402313        7.4475466505  MEMB      50              0.0000000000
      7374        78  DOPC      C310          -29.1844149356       14.9854647051        5.3838221480  MEMB      50              0.0000000000
      7375        78  DOPC      H10X          -28.1889630239       15.4154203916        5.5687923108  MEMB      50              0.0000000000
      7376        78  DOPC      C311          -29.7040732969       15.1306885224        3.9568819642  MEMB      50              0.0000000000
      7377        78  DOPC      H11X          -29.3462262613       16.1075621047        3.5670301415  MEMB      50              0.0000000000
      7378        78  DOPC      H11Y          -30.8132463465       15.1937205710        3.9660017579  MEMB      50              0.0000000000
      7379        78  DOPC      C312          -29.0758536930       13.9427737275        3.0123360344  MEMB      50              0.0000000000
      7380        78  DOPC      H12X          -27.9801432889       14.0539582332        2.8661239955  MEMB      50              0.0000000000
      7381        78  DOPC      H12Y          -29.4384510462       14.2947132727        2.0229004431  MEMB      50              0.0000000000
      7382        78  DOPC      C313          -29.4835725104       12.5322254600        3.4112409934  MEMB      50              0.0000000000
      7383        78  DOPC      H13X          -29.2051434747       12.3789755465        4.4758121757  MEMB      50              0.0000000000
      7384        78  DOPC      H13Y          -30.5880298700       12.4303258813        3.3471196783  MEMB      50              0.0000000000
      7385        78  DOPC      C314          -29.0091070644       11.4185202013        2.3700756642  MEMB      50              0.0000000000
      7386        78  DOPC      H14X          -27.9012927035       11.5025559004        2.3675230253  MEMB      50              0.0000000000
      7387        78  DOPC      H14Y          -29.2736431751       10.4569322011        2.8596560136  MEMB      50              0.0000000000
      7388        78  DOPC      C315          -29.4381060090       11.4241065644        0.9276618262  MEMB      50              0.0000000000
      7389        78  DOPC      H15X          -29.1219295014       10.5688504363        0.2929244316  MEMB      50              0.0000000000
      7390        78  DOPC      H15Y          -28.9791444113       12.3342583731        0.4857355973  MEMB      50              0.0000000000
      7391        78  DOPC      C316          -30.9610588806       11.4438814819        0.8365193672  MEMB      50              0.0000000000
      7392        78  DOPC      H16X          -31.3710948865       10.6376119350        1.4815942650  MEMB      50              0.0000000000
      7393        78  DOPC      H16Y          -31.2196697725       12.4418713983        1.2505947292  MEMB      50              0.0000000000
      7394        78  DOPC      C317          -31.6682831029       11.3126257640       -0.6179928754  MEMB      50              0.0000000000
      7395        78  DOPC      H17X          -32.7574245459       11.3982917195       -0.4161193637  MEMB      50              0.0000000000
      7396        78  DOPC      H17Y          -31.1977696835       12.1306248753       -1.2043514133  MEMB      50              0.0000000000
      7397        78  DOPC      C318          -31.4624100501        9.9722901089       -1.3449122778  MEMB      50              0.0000000000
      7398        78  DOPC      H18X          -31.8400852290        9.1331189211       -0.7224385074  MEMB      50              0.0000000000
      7399        78  DOPC      H18Y          -32.0755748117        9.9415942246       -2.2708753080  MEMB      50              0.0000000000
      7400        78  DOPC      H18Z          -30.3712482626        9.8759089095       -1.5303807534  MEMB      50              0.0000000000
      7401        79  DOPC      N              14.3961673548      -31.4737825749       19.9192596351  MEMB      51              0.0000000000
      7402        79  DOPC      C12            14.8894026825      -30.7794296231       18.6668474050  MEMB      51              0.0000000000
      7403        79  DOPC      H12A           14.1879394072      -30.0053356794       18.3927526139  MEMB      51              0.0000000000
      7404        79  DOPC      H12B           14.8956842732      -31.4669314279       17.8339597599  MEMB      51              0.0000000000
      7405        79  DOPC      C13            15.0609837409      -32.7103214817       20.4430646752  MEMB      51              0.0000000000
      7406        79  DOPC      H13A           16.1349598521      -32.6072466990       20.4915492869  MEMB      51              0.0000000000
      7407        79  DOPC      H13B           14.6308193754      -33.0664689442       21.3674658994  MEMB      51              0.0000000000
      7408        79  DOPC      H13C           14.6964508467      -33.5146750963       19.8213483828  MEMB      51              0.0000000000
      7409        79  DOPC      C14            12.9232369296      -31.8720892092       19.7048831573  MEMB      51              0.0000000000
      7410        79  DOPC      H14A           12.1741927709      -31.1578900734       19.3962534818  MEMB      51              0.0000000000
      7411        79  DOPC      H14B           12.9885162341      -32.6562630141       18.9651466640  MEMB      51              0.0000000000
      7412        79  DOPC      H14C           12.4630719522      -32.2227922150       20.6168348090  MEMB      51              0.0000000000
      7413        79  DOPC      C15            14.2568568651      -30.4462017672       21.0695143805  MEMB      51              0.0000000000
      7414        79  DOPC      H15A           13.8938582225      -29.5572900791       20.5750772995  MEMB      51              0.0000000000
      7415        79  DOPC      H15B           15.2126428355      -30.2961586387       21.5494726873  MEMB      51              0.0000000000
      7416        79  DOPC      H15C           13.5586097575      -30.8505888809       21.7873736341  MEMB      51              0.0000000000
      7417        79  DOPC      C11            16.3022494265      -30.1132160871       18.7068020742  MEMB      51              0.0000000000
      7418        79  DOPC      H11A           16.5213022238      -29.6665516583       17.7134100854  MEMB      51              0.0000000000
      7419        79  DOPC      H11B           16.2369047844      -29.3234124553       19.4854299500  MEMB      51              0.0000000000
      7420        79  DOPC      P              17.8788904148      -32.0344597123       18.0374698531  MEMB      51              0.0000000000
      7421        79  DOPC      O13            18.6673629697      -33.1042591642       18.7195016408  MEMB      51              0.0000000000
      7422        79  DOPC      O14            18.5943217246      -31.0787903948       17.1902618964  MEMB      51              0.0000000000
      7423        79  DOPC      O12            17.2807211592      -31.0594646124       19.1879807073  MEMB      51              0.0000000000
      7424        79  DOPC      O11            16.5671419034      -32.6208708798       17.3544145789  MEMB      51              0.0000000000
      7425        79  DOPC      C1             16.6223357442      -33.6473573521       16.3540165129  MEMB      51              0.0000000000
      7426        79  DOPC      HA             15.9205673492      -34.4898303958       16.5331286101  MEMB      51              0.0000000000
      7427        79  DOPC      HB             17.6633465625      -33.9826886975       16.1586449543  MEMB      51              0.0000000000
      7428        79  DOPC      C2             16.0921161982      -33.0754974020       14.9760500747  MEMB      51              0.0000000000
      7429        79  DOPC      HS             16.0980009602      -33.9286862755       14.2644638178  MEMB      51              0.0000000000
      7430        79  DOPC      O21            16.8969916498      -32.0718366224       14.4160022765  MEMB      51              0.0000000000
      7431        79  DOPC      C21            18.1700073177      -32.2294782951       14.1431419456  MEMB      51              0.0000000000
      7432        79  DOPC      O22            18.7876594995      -33.3091151859       14.1060779706  MEMB      51              0.0000000000
      7433        79  DOPC      C22            18.7665886160      -30.8410386177       13.9074992115  MEMB      51              0.0000000000
      7434        79  DOPC      H2R            19.5034333189      -30.5011589708       14.6663555320  MEMB      51              0.0000000000
      7435        79  DOPC      H2S            17.9156347116      -30.1302723023       13.9782781429  MEMB      51              0.0000000000
      7436        79  DOPC      C3             14.6547517786      -32.6004746141       15.2191902943  MEMB      51              0.0000000000
      7437        79  DOPC      HX             14.5860578304      -32.0129727369       16.1596390393  MEMB      51              0.0000000000
      7438        79  DOPC      HY             13.8951320740      -33.4030509766       15.3339512136  MEMB      51              0.0000000000
      7439        79  DOPC      O31            14.1648456611      -31.7992213852       14.1199859209  MEMB      51              0.0000000000
      7440        79  DOPC      C31            14.2792813858      -30.4808979988       14.1654132694  MEMB      51              0.0000000000
      7441        79  DOPC      O32            14.8510355320      -29.8266956496       15.0369442918  MEMB      51              0.0000000000
      7442        79  DOPC      C32            13.4879694865      -29.8427968967       12.9486931045  MEMB      51              0.0000000000
      7443        79  DOPC      H2X            13.7474565916      -30.4011478476       12.0239054584  MEMB      51              0.0000000000
      7444        79  DOPC      H2Y            12.4088477174      -30.0238558872       13.1411381228  MEMB      51              0.0000000000
      7445        79  DOPC      C23            19.4716404884      -30.7590468704       12.5333700911  MEMB      51              0.0000000000
      7446        79  DOPC      H3R            20.3533854989      -31.4287830783       12.4422657847  MEMB      51              0.0000000000
      7447        79  DOPC      H3S            19.6764448847      -29.7085824130       12.2352078469  MEMB      51              0.0000000000
      7448        79  DOPC      C24            18.5781452678      -31.2857287324       11.3700120552  MEMB      51              0.0000000000
      7449        79  DOPC      H4R            18.3419630200      -32.3622568940       11.5101048804  MEMB      51              0.0000000000
      7450        79  DOPC      H4S            19.0225634720      -31.0975870574       10.3693045468  MEMB      51              0.0000000000
      7451        79  DOPC      C25            17.2491783968      -30.4852076564       11.2601759091  MEMB      51              0.0000000000
      7452        79  DOPC      H5R            17.5252120792      -29.4334900846       11.0321046598  MEMB      51              0.0000000000
      7453        79  DOPC      H5S            16.6766159794      -30.5127042515       12.2118783802  MEMB      51              0.0000000000
      7454        79  DOPC      C26            16.3161587301      -31.0221920433       10.1328926792  MEMB      51              0.0000000000
      7455        79  DOPC      H6R            16.8981670593      -30.7860159181        9.2164821159  MEMB      51              0.0000000000
      7456        79  DOPC      H6S            15.3441557564      -30.4843392322       10.1485609049  MEMB      51              0.0000000000
      7457        79  DOPC      C27            16.1129799899      -32.5878147918       10.1134648977  MEMB      51              0.0000000000
      7458        79  DOPC      H7R            15.8135185763      -32.9874905170       11.1058876628  MEMB      51              0.0000000000
      7459        79  DOPC      H7S            17.0576696406      -33.1277621357        9.8891014186  MEMB      51              0.0000000000
      7460        79  DOPC      C28            14.8871272740      -32.9847288680        9.1876919946  MEMB      51              0.0000000000
      7461        79  DOPC      H8R            14.8290415997      -34.0935980202        9.2245177950  MEMB      51              0.0000000000
      7462        79  DOPC      H8S            15.2790457523      -32.6792248320        8.1940177075  MEMB      51              0.0000000000
      7463        79  DOPC      C29            13.6000709477      -32.2193700357        9.4001751149  MEMB      51              0.0000000000
      7464        79  DOPC      H9R            13.1636644703      -32.4687374632       10.3786259936  MEMB      51              0.0000000000
      7465        79  DOPC      C210           12.9679851307      -31.3919200947        8.5518896147  MEMB      51              0.0000000000
      7466        79  DOPC      H10R           12.1038205389      -30.8368391362        8.9457228771  MEMB      51              0.0000000000
      7467        79  DOPC      C211           13.4742250438      -31.0289108074        7.1912126134  MEMB      51              0.0000000000
      7468        79  DOPC      H11R           13.7878350103      -31.9352061456        6.6303216275  MEMB      51              0.0000000000
      7469        79  DOPC      H11S           14.2957823991      -30.2990507701        7.3545181833  MEMB      51              0.0000000000
      7470        79  DOPC      C212           12.3847815490      -30.3716937926        6.3805875430  MEMB      51              0.0000000000
      7471        79  DOPC      H12R           12.3383614674      -29.3113467619        6.7089627728  MEMB      51              0.0000000000
      7472        79  DOPC      H12S           11.4531799455      -30.9684795473        6.4820074770  MEMB      51              0.0000000000
      7473        79  DOPC      C213           12.8111973637      -30.2638116948        4.9015253352  MEMB      51              0.0000000000
      7474        79  DOPC      H13R           11.9597126851      -29.9007920338        4.2871056070  MEMB      51              0.0000000000
      7475        79  DOPC      H13S           13.0246817258      -31.2783789708        4.5022780621  MEMB      51              0.0000000000
      7476        79  DOPC      C214           13.8947153377      -29.2377185488        4.6470051239  MEMB      51              0.0000000000
      7477        79  DOPC      H14R           14.8156201584      -29.3914996525        5.2491735298  MEMB      51              0.0000000000
      7478        79  DOPC      H14S           13.5569289219      -28.2265358083        4.9596244462  MEMB      51              0.0000000000
      7479        79  DOPC      C215           14.3584382681      -29.1908595029        3.1151527098  MEMB      51              0.0000000000
      7480        79  DOPC      H15R           13.4097203580      -29.0783232107        2.5480641183  MEMB      51              0.0000000000
      7481        79  DOPC      H15S           14.6218992063      -30.2448599429        2.8827900972  MEMB      51              0.0000000000
      7482        79  DOPC      C216           15.4380194775      -28.1297270950        2.8944089669  MEMB      51              0.0000000000
      7483        79  DOPC      H16R           16.3205180796      -28.6282771170        2.4394757113  MEMB      51              0.0000000000
      7484        79  DOPC      H16S           15.7867765656      -27.9590349997        3.9353477327  MEMB      51              0.0000000000
      7485        79  DOPC      C217           15.0728609044      -26.8424950553        2.2610846822  MEMB      51              0.0000000000
      7486        79  DOPC      H17R           14.1132063486      -26.5662952565        2.7480112543  MEMB      51              0.0000000000
      7487        79  DOPC      H17S           14.8142401601      -27.1782996664        1.2341115159  MEMB      51              0.0000000000
      7488        79  DOPC      C218           15.9572196447      -25.5330917238        2.1815058772  MEMB      51              0.0000000000
      7489        79  DOPC      H18R           15.8909458352      -24.9943786105        3.1508950970  MEMB      51              0.0000000000
      7490        79  DOPC      H18S           15.5349484213      -24.9108972769        1.3636544062  MEMB      51              0.0000000000
      7491        79  DOPC      H18T           16.9476540483      -25.7498128142        1.7272002968  MEMB      51              0.0000000000
      7492        79  DOPC      C33            13.7591818515      -28.3028117479       12.7743701656  MEMB      51              0.0000000000
      7493        79  DOPC      H3X            14.8464950304      -28.1551673061       12.6003808397  MEMB      51              0.0000000000
      7494        79  DOPC      H3Y            13.4915733725      -27.7232974165       13.6836936308  MEMB      51              0.0000000000
      7495        79  DOPC      C34            13.0395606631      -27.6421049796       11.5950433756  MEMB      51              0.0000000000
      7496        79  DOPC      H4X            13.0244429302      -26.5465092398       11.7787876362  MEMB      51              0.0000000000
      7497        79  DOPC      H4Y            11.9963379246      -27.9993786258       11.7305529841  MEMB      51              0.0000000000
      7498        79  DOPC      C35            13.6096259518      -27.8295260658       10.1736608316  MEMB      51              0.0000000000
      7499        79  DOPC      H5X            12.8754432947      -27.5810560828        9.3776968014  MEMB      51              0.0000000000
      7500        79  DOPC      H5Y            13.6831714177      -28.8920939360        9.8576512863  MEMB      51              0.0000000000
      7501        79  DOPC      C36            14.9815896445      -27.0846906963       10.0355745441  MEMB      51              0.0000000000
      7502        79  DOPC      H6X            14.9243137977      -26.0705920968       10.4857360541  MEMB      51              0.0000000000
      7503        79  DOPC      H6Y            15.7814545250      -27.7226362276       10.4686591755  MEMB      51              0.0000000000
      7504        79  DOPC      C37            15.2100834103      -26.9036072931        8.4908377135  MEMB      51              0.0000000000
      7505        79  DOPC      H7X            14.2609061210      -26.6646902434        7.9651935762  MEMB      51              0.0000000000
      7506        79  DOPC      H7Y            15.6673173373      -25.9166589823        8.2645821219  MEMB      51              0.0000000000
      7507        79  DOPC      C38            16.0435271737      -28.0729115631        7.8423847058  MEMB      51              0.0000000000
      7508        79  DOPC      H8X            15.9452287832      -27.9906138154        6.7388059202  MEMB      51              0.0000000000
      7509        79  DOPC      H8Y            15.4958743870      -28.9963855536        8.1280295132  MEMB      51              0.0000000000
      7510        79  DOPC      C39            17.5391619936      -28.1035723678        8.2428624386  MEMB      51              0.0000000000
      7511        79  DOPC      H9X            17.7554720056      -27.8951987025        9.3010641498  MEMB      51              0.0000000000
      7512        79  DOPC      C310           18.6253833914      -28.4414775594        7.5220590624  MEMB      51              0.0000000000
      7513        79  DOPC      H10X           19.6014413698      -28.2589677489        7.9953466096  MEMB      51              0.0000000000
      7514        79  DOPC      C311           18.6192457528      -28.8498095852        6.1485147235  MEMB      51              0.0000000000
      7515        79  DOPC      H11X           19.1465178730      -28.1113290100        5.5074592136  MEMB      51              0.0000000000
      7516        79  DOPC      H11Y           17.5971534755      -29.0983127663        5.7908904985  MEMB      51              0.0000000000
      7517        79  DOPC      C312           19.3867572710      -30.1987752730        6.0989412336  MEMB      51              0.0000000000
      7518        79  DOPC      H12X           20.4032505228      -30.2375156778        6.5456644906  MEMB      51              0.0000000000
      7519        79  DOPC      H12Y           19.4413687774      -30.4255143799        5.0126964851  MEMB      51              0.0000000000
      7520        79  DOPC      C313           18.6572360298      -31.4110430898        6.7468062280  MEMB      51              0.0000000000
      7521        79  DOPC      H13X           19.3815857188      -32.2523714414        6.7892919860  MEMB      51              0.0000000000
      7522        79  DOPC      H13Y           18.5613013666      -31.2093340523        7.8351216127  MEMB      51              0.0000000000
      7523        79  DOPC      C314           17.3393136883      -31.9101527691        6.1129338079  MEMB      51              0.0000000000
      7524        79  DOPC      H14X           17.1225882496      -32.8063026515        6.7328265824  MEMB      51              0.0000000000
      7525        79  DOPC      H14Y           16.6051638226      -31.0845802061        6.2303003271  MEMB      51              0.0000000000
      7526        79  DOPC      C315           17.4175484590      -32.3545592180        4.6151424255  MEMB      51              0.0000000000
      7527        79  DOPC      H15X           18.3886446403      -32.8497975199        4.4005917422  MEMB      51              0.0000000000
      7528        79  DOPC      H15Y           17.5046507509      -31.3988701243        4.0553274196  MEMB      51              0.0000000000
      7529        79  DOPC      C316           16.1767329727      -33.1752299666        4.1319940683  MEMB      51              0.0000000000
      7530        79  DOPC      H16X           16.1382990852      -34.1255696833        4.7061881184  MEMB      51              0.0000000000
      7531        79  DOPC      H16Y           15.2776217482      -32.5755808734        4.3895612618  MEMB      51              0.0000000000
      7532        79  DOPC      C317           16.2559621169      -33.3618982595        2.6606621504  MEMB      51              0.0000000000
      7533        79  DOPC      H17X           16.0888483243      -32.3614213590        2.2074069603  MEMB      51              0.0000000000
      7534        79  DOPC      H17Y           17.2299333385      -33.7365022591        2.2793841570  MEMB      51              0.0000000000
      7535        79  DOPC      C318           15.2760960884      -34.4157283030        2.1009280219  MEMB      51              0.0000000000
      7536        79  DOPC      H18X           14.2258773708      -34.1334291019        2.3282351483  MEMB      51              0.0000000000
      7537        79  DOPC      H18Y           15.3859262041      -34.3233024798        0.9992400230  MEMB      51              0.0000000000
      7538        79  DOPC      H18Z           15.5751095677      -35.4395294273        2.4119627186  MEMB      51              0.0000000000
      7539        80  DOPC      N              31.7853237623       -7.4891042399       17.8521821817  MEMB      52              0.0000000000
      7540        80  DOPC      C12            32.8961241492       -8.2921594000       18.4903608310  MEMB      52              0.0000000000
      7541        80  DOPC      H12A           33.2932806745       -8.9677714977       17.7472491793  MEMB      52              0.0000000000
      7542        80  DOPC      H12B           32.5891013734       -8.8717961500       19.3483574449  MEMB      52              0.0000000000
      7543        80  DOPC      C13            32.2476122624       -6.6787107506       16.6664284815  MEMB      52              0.0000000000
      7544        80  DOPC      H13A           33.0279708822       -5.9629335778       16.8788049064  MEMB      52              0.0000000000
      7545        80  DOPC      H13B           32.5061595779       -7.3440700384       15.8559655647  MEMB      52              0.0000000000
      7546        80  DOPC      H13C           31.3716496516       -6.1317528179       16.3503168939  MEMB      52              0.0000000000
      7547        80  DOPC      C14            31.2783520814       -6.4311990182       18.8573153203  MEMB      52              0.0000000000
      7548        80  DOPC      H14A           31.1364801558       -6.9972488621       19.7660836664  MEMB      52              0.0000000000
      7549        80  DOPC      H14B           32.1339177371       -5.8029837176       19.0566963143  MEMB      52              0.0000000000
      7550        80  DOPC      H14C           30.4086580727       -5.8997731000       18.5000773789  MEMB      52              0.0000000000
      7551        80  DOPC      C15            30.6029450771       -8.4559304822       17.4873164113  MEMB      52              0.0000000000
      7552        80  DOPC      H15A           30.3299138276       -8.9643437944       18.4002072023  MEMB      52              0.0000000000
      7553        80  DOPC      H15B           31.0009092296       -9.1946742563       16.8074031298  MEMB      52              0.0000000000
      7554        80  DOPC      H15C           29.7590039276       -7.8584701680       17.1755404270  MEMB      52              0.0000000000
      7555        80  DOPC      C11            34.1918265845       -7.5441008453       18.7300616460  MEMB      52              0.0000000000
      7556        80  DOPC      H11A           34.8747970603       -8.3510254749       19.0717411803  MEMB      52              0.0000000000
      7557        80  DOPC      H11B           34.6159501556       -7.0437350993       17.8333597032  MEMB      52              0.0000000000
      7558        80  DOPC      P              35.1636490909       -5.6441257378       20.2730107472  MEMB      52              0.0000000000
      7559        80  DOPC      O13            36.1323694330       -6.4911319181       21.0256214509  MEMB      52              0.0000000000
      7560        80  DOPC      O14            34.5739827448       -4.4766749836       20.9185584785  MEMB      52              0.0000000000
      7561        80  DOPC      O12            33.9850413338       -6.5060030612       19.7518175859  MEMB      52              0.0000000000
      7562        80  DOPC      O11            35.7972948827       -5.1664598646       18.9473268423  MEMB      52              0.0000000000
      7563        80  DOPC      C1             36.8715568965       -4.2110380445       18.8468760073  MEMB      52              0.0000000000
      7564        80  DOPC      HA             37.7672192659       -4.3841887219       19.4810121374  MEMB      52              0.0000000000
      7565        80  DOPC      HB             36.4188669322       -3.2168859638       19.0494956200  MEMB      52              0.0000000000
      7566        80  DOPC      C2             37.3775239242       -4.1016191108       17.3928822408  MEMB      52              0.0000000000
      7567        80  DOPC      HS             38.0023647878       -3.2123099346       17.1626130218  MEMB      52              0.0000000000
      7568        80  DOPC      O21            36.3252050423       -4.0870722138       16.3666381622  MEMB      52              0.0000000000
      7569        80  DOPC      C21            35.5666010466       -3.0666835012       16.2911038912  MEMB      52              0.0000000000
      7570        80  DOPC      O22            35.5346006021       -2.0730369917       17.0168094259  MEMB      52              0.0000000000
      7571        80  DOPC      C22            34.5116734280       -3.5240336345       15.2029770414  MEMB      52              0.0000000000
      7572        80  DOPC      H2R            34.3793106903       -4.6112604377       15.3893607684  MEMB      52              0.0000000000
      7573        80  DOPC      H2S            34.9665007671       -3.3580921240       14.2030188483  MEMB      52              0.0000000000
      7574        80  DOPC      C3             38.2760934464       -5.3425872701       17.0690453848  MEMB      52              0.0000000000
      7575        80  DOPC      HX             38.8327501876       -5.6609551220       17.9762920732  MEMB      52              0.0000000000
      7576        80  DOPC      HY             38.9536697218       -4.9603800261       16.2758689496  MEMB      52              0.0000000000
      7577        80  DOPC      O31            37.4969885066       -6.4090072375       16.5124941057  MEMB      52              0.0000000000
      7578        80  DOPC      C31            38.1145649586       -7.3337286744       15.8673635065  MEMB      52              0.0000000000
      7579        80  DOPC      O32            39.2869629433       -7.5580995349       15.7481198076  MEMB      52              0.0000000000
      7580        80  DOPC      C32            37.1277418903       -8.3110933054       15.2842772015  MEMB      52              0.0000000000
      7581        80  DOPC      H2X            37.5259526749       -8.8437448042       14.3943157338  MEMB      52              0.0000000000
      7582        80  DOPC      H2Y            36.8861086663       -9.0278489884       16.0980313015  MEMB      52              0.0000000000
      7583        80  DOPC      C23            33.1787357359       -2.6876511049       15.2149328737  MEMB      52              0.0000000000
      7584        80  DOPC      H3R            33.1869044896       -1.5999405775       14.9887907582  MEMB      52              0.0000000000
      7585        80  DOPC      H3S            32.7947677829       -2.6136294126       16.2548417582  MEMB      52              0.0000000000
      7586        80  DOPC      C24            32.1202509764       -3.3543205460       14.3354926879  MEMB      52              0.0000000000
      7587        80  DOPC      H4R            31.1060681577       -2.9453797393       14.5317625562  MEMB      52              0.0000000000
      7588        80  DOPC      H4S            32.0816093385       -4.4456745825       14.5398804196  MEMB      52              0.0000000000
      7589        80  DOPC      C25            32.3462945921       -3.2540104852       12.8714544667  MEMB      52              0.0000000000
      7590        80  DOPC      H5R            33.2874090735       -3.7687103517       12.5821300665  MEMB      52              0.0000000000
      7591        80  DOPC      H5S            32.3236899917       -2.1792350172       12.5909767406  MEMB      52              0.0000000000
      7592        80  DOPC      C26            31.1122485987       -3.9166874691       12.1666549970  MEMB      52              0.0000000000
      7593        80  DOPC      H6R            30.0918734469       -3.5703037840       12.4371626762  MEMB      52              0.0000000000
      7594        80  DOPC      H6S            31.0992747922       -5.0193563888       12.3018354705  MEMB      52              0.0000000000
      7595        80  DOPC      C27            31.2167227261       -3.5694119488       10.6816731733  MEMB      52              0.0000000000
      7596        80  DOPC      H7R            31.6068702838       -2.5300039873       10.6400004085  MEMB      52              0.0000000000
      7597        80  DOPC      H7S            30.2297326674       -3.5041257106       10.1757982546  MEMB      52              0.0000000000
      7598        80  DOPC      C28            32.1556080146       -4.5231094038        9.7707504231  MEMB      52              0.0000000000
      7599        80  DOPC      H8R            33.1272136584       -4.7264905477       10.2696893652  MEMB      52              0.0000000000
      7600        80  DOPC      H8S            32.5804897969       -3.8336945562        9.0101563559  MEMB      52              0.0000000000
      7601        80  DOPC      C29            31.5856425115       -5.7479630290        9.0955911254  MEMB      52              0.0000000000
      7602        80  DOPC      H9R            31.2487378289       -6.5940700875        9.7125176347  MEMB      52              0.0000000000
      7603        80  DOPC      C210           31.1686076986       -5.8033732446        7.8323487078  MEMB      52              0.0000000000
      7604        80  DOPC      H10R           30.7048943733       -6.7509819406        7.5208881345  MEMB      52              0.0000000000
      7605        80  DOPC      C211           31.0790165655       -4.7972812274        6.6840856066  MEMB      52              0.0000000000
      7606        80  DOPC      H11R           31.2335862565       -3.7235330713        6.9238649584  MEMB      52              0.0000000000
      7607        80  DOPC      H11S           30.0070246738       -4.7299426288        6.4001493240  MEMB      52              0.0000000000
      7608        80  DOPC      C212           31.9583638940       -5.0586417096        5.4945051850  MEMB      52              0.0000000000
      7609        80  DOPC      H12R           31.7652040552       -4.4623097533        4.5772273664  MEMB      52              0.0000000000
      7610        80  DOPC      H12S           31.7412992409       -6.0992263175        5.1714142981  MEMB      52              0.0000000000
      7611        80  DOPC      C213           33.5225944385       -5.0252203941        5.8019278487  MEMB      52              0.0000000000
      7612        80  DOPC      H13R           33.6774665321       -5.9551827250        6.3897250011  MEMB      52              0.0000000000
      7613        80  DOPC      H13S           33.6672000412       -4.1053754929        6.4079769343  MEMB      52              0.0000000000
      7614        80  DOPC      C214           34.3960723989       -4.8830665384        4.5198625215  MEMB      52              0.0000000000
      7615        80  DOPC      H14R           34.2707677037       -3.8768604975        4.0658042288  MEMB      52              0.0000000000
      7616        80  DOPC      H14S           34.0619674390       -5.6575651242        3.7967804074  MEMB      52              0.0000000000
      7617        80  DOPC      C215           35.9575015368       -4.9112938396        4.7703978378  MEMB      52              0.0000000000
      7618        80  DOPC      H15R           36.0328359505       -5.9220853152        5.2253120905  MEMB      52              0.0000000000
      7619        80  DOPC      H15S           36.2332766641       -4.2314987400        5.6047528574  MEMB      52              0.0000000000
      7620        80  DOPC      C216           36.8729187696       -4.7934610859        3.5362953122  MEMB      52              0.0000000000
      7621        80  DOPC      H16R           36.6034177399       -5.5981673433        2.8192603109  MEMB      52              0.0000000000
      7622        80  DOPC      H16S           37.9258649438       -4.9847644873        3.8346719313  MEMB      52              0.0000000000
      7623        80  DOPC      C217           36.9087145663       -3.3643467217        2.9479927751  MEMB      52              0.0000000000
      7624        80  DOPC      H17R           37.3442144207       -2.6619493092        3.6904884407  MEMB      52              0.0000000000
      7625        80  DOPC      H17S           35.9366752894       -2.8993109309        2.6774334636  MEMB      52              0.0000000000
      7626        80  DOPC      C218           37.7061503090       -3.3266256824        1.6337780443  MEMB      52              0.0000000000
      7627        80  DOPC      H18R           37.5097773816       -2.4351854992        1.0004574002  MEMB      52              0.0000000000
      7628        80  DOPC      H18S           37.4037205152       -4.0984087209        0.8940420939  MEMB      52              0.0000000000
      7629        80  DOPC      H18T           38.7618844244       -3.6209036044        1.8158411435  MEMB      52              0.0000000000
      7630        80  DOPC      C33            35.8037893894       -7.6882562997       14.9108642403  MEMB      52              0.0000000000
      7631        80  DOPC      H3X            35.8627817650       -6.8461275475       14.1886034379  MEMB      52              0.0000000000
      7632        80  DOPC      H3Y            35.2917240039       -7.2483488041       15.7932422452  MEMB      52              0.0000000000
      7633        80  DOPC      C34            34.7821804472       -8.6534102081       14.3352463677  MEMB      52              0.0000000000
      7634        80  DOPC      H4X            33.8559631927       -8.0547631680       14.4696504664  MEMB      52              0.0000000000
      7635        80  DOPC      H4Y            34.5373684319       -9.6410235857       14.7813498742  MEMB      52              0.0000000000
      7636        80  DOPC      C35            34.8846775917       -8.8749377621       12.8801660446  MEMB      52              0.0000000000
      7637        80  DOPC      H5X            33.9225322262       -9.2933328764       12.5147311782  MEMB      52              0.0000000000
      7638        80  DOPC      H5Y            35.7137856805       -9.5986941143       12.7282533489  MEMB      52              0.0000000000
      7639        80  DOPC      C36            35.3823879416       -7.7455399579       11.9249010780  MEMB      52              0.0000000000
      7640        80  DOPC      H6X            34.7487491037       -6.8425689478       12.0570606320  MEMB      52              0.0000000000
      7641        80  DOPC      H6Y            36.4338571226       -7.5318983877       12.2131557486  MEMB      52              0.0000000000
      7642        80  DOPC      C37            35.2670567774       -8.0949583135       10.3692483049  MEMB      52              0.0000000000
      7643        80  DOPC      H7X            34.2744785279       -8.5114616866       10.0942310785  MEMB      52              0.0000000000
      7644        80  DOPC      H7Y            35.6712509737       -7.2474529994        9.7753776478  MEMB      52              0.0000000000
      7645        80  DOPC      C38            36.2197404333       -9.2705750398        9.9622618576  MEMB      52              0.0000000000
      7646        80  DOPC      H8X            35.7710523747       -9.7264741989        9.0538806938  MEMB      52              0.0000000000
      7647        80  DOPC      H8Y            36.1253904581      -10.0738640749       10.7239354405  MEMB      52              0.0000000000
      7648        80  DOPC      C39            37.6511565405       -8.9132778967        9.6359336475  MEMB      52              0.0000000000
      7649        80  DOPC      H9X            38.1477688698       -8.1792528925       10.2875339588  MEMB      52              0.0000000000
      7650        80  DOPC      C310           38.4527000308       -9.3815286821        8.6515563466  MEMB      52              0.0000000000
      7651        80  DOPC      H10X           39.4391588657       -8.9074292213        8.5414256943  MEMB      52              0.0000000000
      7652        80  DOPC      C311           38.0732064940      -10.4430623529        7.5614956283  MEMB      52              0.0000000000
      7653        80  DOPC      H11X           37.0421176044      -10.8488678410        7.6421075677  MEMB      52              0.0000000000
      7654        80  DOPC      H11Y           38.7251033267      -11.3233682898        7.7470021710  MEMB      52              0.0000000000
      7655        80  DOPC      C312           38.0898443369       -9.7933837039        6.1356997470  MEMB      52              0.0000000000
      7656        80  DOPC      H12X           37.3531190507       -8.9725108430        6.2688325731  MEMB      52              0.0000000000
      7657        80  DOPC      H12Y           37.8061614239      -10.6115196658        5.4396399183  MEMB      52              0.0000000000
      7658        80  DOPC      C313           39.3720581816       -9.1703989142        5.6938649235  MEMB      52              0.0000000000
      7659        80  DOPC      H13X           39.9576466115       -8.6298778575        6.4679734510  MEMB      52              0.0000000000
      7660        80  DOPC      H13Y           39.9487233024      -10.0711818602        5.3932518704  MEMB      52              0.0000000000
      7661        80  DOPC      C314           39.2986318747       -8.1964453357        4.4604164535  MEMB      52              0.0000000000
      7662        80  DOPC      H14X           38.8483235104       -7.1984767453        4.6491009649  MEMB      52              0.0000000000
      7663        80  DOPC      H14Y           40.3129228002       -7.9572543632        4.0752903404  MEMB      52              0.0000000000
      7664        80  DOPC      C315           38.6181975314       -8.8685606482        3.2344645421  MEMB      52              0.0000000000
      7665        80  DOPC      H15X           38.9260436446       -9.9264532448        3.3773435524  MEMB      52              0.0000000000
      7666        80  DOPC      H15Y           38.9150881795       -8.3601828694        2.2922713162  MEMB      52              0.0000000000
      7667        80  DOPC      C316           37.1104281856       -8.7455671851        3.1933530951  MEMB      52              0.0000000000
      7668        80  DOPC      H16X           36.6519917075       -9.0811479412        4.1480997738  MEMB      52              0.0000000000
      7669        80  DOPC      H16Y           36.8717031813       -7.6875136488        2.9528218605  MEMB      52              0.0000000000
      7670        80  DOPC      C317           36.4814370638       -9.6984129759        2.1803352962  MEMB      52              0.0000000000
      7671        80  DOPC      H17X           36.7318832429       -9.1561696040        1.2435483705  MEMB      52              0.0000000000
      7672        80  DOPC      H17Y           37.0147956790      -10.6701684761        2.2547736546  MEMB      52              0.0000000000
      7673        80  DOPC      C318           34.9644972787       -9.7793828816        2.0832399602  MEMB      52              0.0000000000
      7674        80  DOPC      H18X           34.6208251046       -8.7378976013        1.9057029646  MEMB      52              0.0000000000
      7675        80  DOPC      H18Y           34.7871567007      -10.5193765005        1.2737470069  MEMB      52              0.0000000000
      7676        80  DOPC      H18Z           34.5519301496      -10.1732886502        3.0366279957  MEMB      52              0.0000000000
      7677        81  DOPC      N              36.1096311340        1.5262356670       17.9377421997  MEMB      53              0.0000000000
      7678        81  DOPC      C12            34.7946899757        1.2567072983       18.5778957967  MEMB      53              0.0000000000
      7679        81  DOPC      H12A           34.8260215640        0.1819025647       18.6789562561  MEMB      53              0.0000000000
      7680        81  DOPC      H12B           34.0100711197        1.4274488690       17.8556627263  MEMB      53              0.0000000000
      7681        81  DOPC      C13            36.1566179742        0.8504113584       16.5800856791  MEMB      53              0.0000000000
      7682        81  DOPC      H13A           35.7918874080       -0.1564462618       16.7201193799  MEMB      53              0.0000000000
      7683        81  DOPC      H13B           35.4599730326        1.3867393560       15.9528391308  MEMB      53              0.0000000000
      7684        81  DOPC      H13C           37.1315223209        1.0372988413       16.1546040521  MEMB      53              0.0000000000
      7685        81  DOPC      C14            37.2428659026        0.9255518655       18.7106173067  MEMB      53              0.0000000000
      7686        81  DOPC      H14A           37.0096770530       -0.0989032529       18.9606460428  MEMB      53              0.0000000000
      7687        81  DOPC      H14B           38.1218662979        0.9711013590       18.0847711436  MEMB      53              0.0000000000
      7688        81  DOPC      H14C           37.2799166472        1.5145470509       19.6151128037  MEMB      53              0.0000000000
      7689        81  DOPC      C15            36.3546762987        2.9909334424       17.8012113580  MEMB      53              0.0000000000
      7690        81  DOPC      H15A           36.4153983355        3.5528760466       18.7215011715  MEMB      53              0.0000000000
      7691        81  DOPC      H15B           35.5671683556        3.3806311815       17.1732249121  MEMB      53              0.0000000000
      7692        81  DOPC      H15C           37.2692768363        3.0583139063       17.2308028729  MEMB      53              0.0000000000
      7693        81  DOPC      C11            34.4079267823        1.9659897672       19.9007627351  MEMB      53              0.0000000000
      7694        81  DOPC      H11A           33.3915331592        1.7070325396       20.2671043994  MEMB      53              0.0000000000
      7695        81  DOPC      H11B           35.1438809085        1.5133947468       20.5992254996  MEMB      53              0.0000000000
      7696        81  DOPC      P              33.3718565847        4.4028198785       19.9450133367  MEMB      53              0.0000000000
      7697        81  DOPC      O13            33.8207449553        5.5885241620       19.1831265770  MEMB      53              0.0000000000
      7698        81  DOPC      O14            32.8418950114        4.5274260688       21.2969466533  MEMB      53              0.0000000000
      7699        81  DOPC      O12            34.5950769092        3.3682065079       20.0844633456  MEMB      53              0.0000000000
      7700        81  DOPC      O11            32.4019797740        3.5769651092       18.9821350051  MEMB      53              0.0000000000
      7701        81  DOPC      C1             31.0439359722        3.4466434420       19.4267545517  MEMB      53              0.0000000000
      7702        81  DOPC      HA             30.5245690774        4.2708811809       19.9608060692  MEMB      53              0.0000000000
      7703        81  DOPC      HB             31.1304021649        2.5333679469       20.0534702123  MEMB      53              0.0000000000
      7704        81  DOPC      C2             30.1709264167        3.1532186204       18.2526442366  MEMB      53              0.0000000000
      7705        81  DOPC      HS             29.2133458935        2.7168909570       18.6089843540  MEMB      53              0.0000000000
      7706        81  DOPC      O21            30.7349351509        2.1484957826       17.2992405030  MEMB      53              0.0000000000
      7707        81  DOPC      C21            30.6560071927        0.8571786581       17.7627525855  MEMB      53              0.0000000000
      7708        81  DOPC      O22            29.9800191306        0.4670174231       18.6688434097  MEMB      53              0.0000000000
      7709        81  DOPC      C22            31.6373290377        0.0357055320       16.8278070270  MEMB      53              0.0000000000
      7710        81  DOPC      H2R            31.2895457402       -0.9912440382       17.0701742644  MEMB      53              0.0000000000
      7711        81  DOPC      H2S            32.6759949425        0.1800346739       17.1947720365  MEMB      53              0.0000000000
      7712        81  DOPC      C3             29.7661940968        4.3233432191       17.4004362763  MEMB      53              0.0000000000
      7713        81  DOPC      HX             29.2600968306        5.0355374208       18.0867056193  MEMB      53              0.0000000000
      7714        81  DOPC      HY             28.9285178397        4.0429681556       16.7266343596  MEMB      53              0.0000000000
      7715        81  DOPC      O31            30.8759566813        4.8426210360       16.6158709136  MEMB      53              0.0000000000
      7716        81  DOPC      C31            30.5157691618        5.9688574686       16.0446735340  MEMB      53              0.0000000000
      7717        81  DOPC      O32            29.3803641614        6.2755681389       15.7292695841  MEMB      53              0.0000000000
      7718        81  DOPC      C32            31.8264245139        6.7657655638       15.6638493200  MEMB      53              0.0000000000
      7719        81  DOPC      H2X            32.2665886382        7.2684428849       16.5514824683  MEMB      53              0.0000000000
      7720        81  DOPC      H2Y            32.4671681410        5.9774329487       15.2140714127  MEMB      53              0.0000000000
      7721        81  DOPC      C23            31.3841254697        0.4089950019       15.2981798415  MEMB      53              0.0000000000
      7722        81  DOPC      H3R            30.3451638750        0.7379382147       15.0821329992  MEMB      53              0.0000000000
      7723        81  DOPC      H3S            31.5033680691       -0.5700028907       14.7866477112  MEMB      53              0.0000000000
      7724        81  DOPC      C24            32.3941345961        1.4934220606       14.8458377909  MEMB      53              0.0000000000
      7725        81  DOPC      H4R            33.4534264557        1.1585287906       14.8375822628  MEMB      53              0.0000000000
      7726        81  DOPC      H4S            32.3116666756        2.3097555019       15.5949171148  MEMB      53              0.0000000000
      7727        81  DOPC      C25            31.9698779922        1.9555809248       13.4691400577  MEMB      53              0.0000000000
      7728        81  DOPC      H5R            30.9163121652        2.3076765726       13.4504681024  MEMB      53              0.0000000000
      7729        81  DOPC      H5S            32.0308907251        1.0325014743       12.8538977639  MEMB      53              0.0000000000
      7730        81  DOPC      C26            32.8973303662        2.9500159030       12.8000913254  MEMB      53              0.0000000000
      7731        81  DOPC      H6R            33.8752001222        2.4450540937       12.6480868410  MEMB      53              0.0000000000
      7732        81  DOPC      H6S            33.0529771319        3.7633837346       13.5407179996  MEMB      53              0.0000000000
      7733        81  DOPC      C27            32.3200426169        3.6521073540       11.5743701797  MEMB      53              0.0000000000
      7734        81  DOPC      H7R            32.7876830386        4.6598574216       11.5829314690  MEMB      53              0.0000000000
      7735        81  DOPC      H7S            31.2346703043        3.7975620512       11.7618024753  MEMB      53              0.0000000000
      7736        81  DOPC      C28            32.5562400257        2.8434690761       10.2895580372  MEMB      53              0.0000000000
      7737        81  DOPC      H8R            32.1795546114        3.3997622449        9.4047038967  MEMB      53              0.0000000000
      7738        81  DOPC      H8S            31.8812629721        1.9627292786       10.2345608913  MEMB      53              0.0000000000
      7739        81  DOPC      C29            34.0616256921        2.4597037792       10.1962852387  MEMB      53              0.0000000000
      7740        81  DOPC      H9R            34.1867180305        1.4251976515       10.5486327116  MEMB      53              0.0000000000
      7741        81  DOPC      C210           35.0730284474        3.2286511590        9.8436330910  MEMB      53              0.0000000000
      7742        81  DOPC      H10R           36.0472705023        2.7551503687        9.6521932501  MEMB      53              0.0000000000
      7743        81  DOPC      C211           35.0152095963        4.6758673830        9.3827499904  MEMB      53              0.0000000000
      7744        81  DOPC      H11R           35.7084462728        5.3966724997        9.8666755486  MEMB      53              0.0000000000
      7745        81  DOPC      H11S           34.0159875307        5.0232280615        9.7221860905  MEMB      53              0.0000000000
      7746        81  DOPC      C212           35.0155861040        4.9119654399        7.8385338929  MEMB      53              0.0000000000
      7747        81  DOPC      H12R           35.0190001359        6.0113339407        7.6782285574  MEMB      53              0.0000000000
      7748        81  DOPC      H12S           34.0668404559        4.4507280652        7.4900193590  MEMB      53              0.0000000000
      7749        81  DOPC      C213           36.2503484269        4.2696979336        7.1936648281  MEMB      53              0.0000000000
      7750        81  DOPC      H13R           36.3304434693        3.1616689211        7.2069898218  MEMB      53              0.0000000000
      7751        81  DOPC      H13S           37.2285661976        4.6222565431        7.5849620309  MEMB      53              0.0000000000
      7752        81  DOPC      C214           36.2947307707        4.4494580560        5.6421628111  MEMB      53              0.0000000000
      7753        81  DOPC      H14R           35.7908622115        5.4152131685        5.4236344252  MEMB      53              0.0000000000
      7754        81  DOPC      H14S           35.5467850432        3.7116972856        5.2807664026  MEMB      53              0.0000000000
      7755        81  DOPC      C215           37.6864353590        4.2679108536        5.0633334750  MEMB      53              0.0000000000
      7756        81  DOPC      H15R           38.1813543775        3.2877386532        5.2325647169  MEMB      53              0.0000000000
      7757        81  DOPC      H15S           38.3091431688        4.9865013564        5.6379497532  MEMB      53              0.0000000000
      7758        81  DOPC      C216           37.9076275226        4.5703449005        3.6338386735  MEMB      53              0.0000000000
      7759        81  DOPC      H16R           37.3450147166        3.8618919120        2.9889501673  MEMB      53              0.0000000000
      7760        81  DOPC      H16S           38.9945118809        4.4032542205        3.4754573522  MEMB      53              0.0000000000
      7761        81  DOPC      C217           37.4205907974        5.9825021393        3.3187719710  MEMB      53              0.0000000000
      7762        81  DOPC      H17R           38.0278584989        6.5354136657        4.0669932246  MEMB      53              0.0000000000
      7763        81  DOPC      H17S           36.3916238993        6.3225378967        3.5635654392  MEMB      53              0.0000000000
      7764        81  DOPC      C218           37.7147585030        6.4240452505        1.9609639963  MEMB      53              0.0000000000
      7765        81  DOPC      H18R           37.4148375556        7.4886495299        1.8561474869  MEMB      53              0.0000000000
      7766        81  DOPC      H18S           37.0664404010        5.7297734284        1.3847771973  MEMB      53              0.0000000000
      7767        81  DOPC      H18T           38.7534830903        6.3283826505        1.5785745861  MEMB      53              0.0000000000
      7768        81  DOPC      C33            31.7085167870        7.9198859421       14.5790648955  MEMB      53              0.0000000000
      7769        81  DOPC      H3X            32.5274671018        8.6665655427       14.6572366117  MEMB      53              0.0000000000
      7770        81  DOPC      H3Y            30.8217513113        8.5864567061       14.6394922640  MEMB      53              0.0000000000
      7771        81  DOPC      C34            31.8619258128        7.3494210138       13.2030430002  MEMB      53              0.0000000000
      7772        81  DOPC      H4X            31.0938642817        6.5486155551       13.1472466194  MEMB      53              0.0000000000
      7773        81  DOPC      H4Y            32.8850470664        6.9297564715       13.0961528781  MEMB      53              0.0000000000
      7774        81  DOPC      C35            31.4548448269        8.2395964379       12.0276977045  MEMB      53              0.0000000000
      7775        81  DOPC      H5X            32.1174519753        9.1271412088       11.9408811118  MEMB      53              0.0000000000
      7776        81  DOPC      H5Y            30.4147982449        8.6104973764       12.1504024030  MEMB      53              0.0000000000
      7777        81  DOPC      C36            31.5068703246        7.4473400530       10.6604474595  MEMB      53              0.0000000000
      7778        81  DOPC      H6X            32.5937814548        7.3049303906       10.4797144099  MEMB      53              0.0000000000
      7779        81  DOPC      H6Y            31.0551624810        6.4352952130       10.7382047764  MEMB      53              0.0000000000
      7780        81  DOPC      C37            30.9155165858        8.2366800115        9.5368616274  MEMB      53              0.0000000000
      7781        81  DOPC      H7X            29.8396659470        7.9629556759        9.4927967502  MEMB      53              0.0000000000
      7782        81  DOPC      H7Y            30.9443577972        9.3341593760        9.7072390624  MEMB      53              0.0000000000
      7783        81  DOPC      C38            31.4763358694        7.8866796346        8.1858552482  MEMB      53              0.0000000000
      7784        81  DOPC      H8X            32.5301235017        8.2168922251        8.3075616089  MEMB      53              0.0000000000
      7785        81  DOPC      H8Y            31.0341993654        8.4310079766        7.3241451513  MEMB      53              0.0000000000
      7786        81  DOPC      C39            31.5314744146        6.4029787393        7.9752953702  MEMB      53              0.0000000000
      7787        81  DOPC      H9X            32.2296215689        5.8359974674        8.6086379321  MEMB      53              0.0000000000
      7788        81  DOPC      C310           30.6580508210        5.6476154377        7.2670686990  MEMB      53              0.0000000000
      7789        81  DOPC      H10X           30.7335348009        4.5602216489        7.4149770199  MEMB      53              0.0000000000
      7790        81  DOPC      C311           29.4261798040        6.2632305781        6.5958259507  MEMB      53              0.0000000000
      7791        81  DOPC      H11X           29.1449611632        7.2791664468        6.9466981447  MEMB      53              0.0000000000
      7792        81  DOPC      H11Y           28.6233680467        5.5846296256        6.9554300947  MEMB      53              0.0000000000
      7793        81  DOPC      C312           29.3463743555        6.1477117828        5.0222192708  MEMB      53              0.0000000000
      7794        81  DOPC      H12X           28.4123583010        6.6224464284        4.6526757071  MEMB      53              0.0000000000
      7795        81  DOPC      H12Y           29.4542580748        5.0724816684        4.7642222385  MEMB      53              0.0000000000
      7796        81  DOPC      C313           30.5623403527        6.8049970136        4.3515682725  MEMB      53              0.0000000000
      7797        81  DOPC      H13X           30.1069867569        7.2113404546        3.4232038719  MEMB      53              0.0000000000
      7798        81  DOPC      H13Y           30.9392983362        7.7215136893        4.8537843278  MEMB      53              0.0000000000
      7799        81  DOPC      C314           31.7572168661        5.9976863124        3.9430119117  MEMB      53              0.0000000000
      7800        81  DOPC      H14X           32.6702898651        6.4338968428        4.4016390396  MEMB      53              0.0000000000
      7801        81  DOPC      H14Y           31.6510405555        5.0550556700        4.5213675864  MEMB      53              0.0000000000
      7802        81  DOPC      C315           32.0326591177        5.7826695525        2.4497500197  MEMB      53              0.0000000000
      7803        81  DOPC      H15X           32.1607429358        6.7490426264        1.9167976675  MEMB      53              0.0000000000
      7804        81  DOPC      H15Y           31.1291139574        5.3042650437        2.0149430420  MEMB      53              0.0000000000
      7805        81  DOPC      C316           33.1116005830        4.7515002854        2.2498665454  MEMB      53              0.0000000000
      7806        81  DOPC      H16X           34.0748570552        5.2984465121        2.1643840555  MEMB      53              0.0000000000
      7807        81  DOPC      H16Y           33.1721197436        4.0394876544        3.1005711832  MEMB      53              0.0000000000
      7808        81  DOPC      C317           32.7133428465        3.9401254553        1.0339055759  MEMB      53              0.0000000000
      7809        81  DOPC      H17X           33.4580217082        3.1636057460        0.7567928098  MEMB      53              0.0000000000
      7810        81  DOPC      H17Y           31.7812068875        3.4935870114        1.4413937129  MEMB      53              0.0000000000
      7811        81  DOPC      C318           32.4751501525        4.7566761880       -0.2341759155  MEMB      53              0.0000000000
      7812        81  DOPC      H18X           32.5259692587        4.1706995113       -1.1767095112  MEMB      53              0.0000000000
      7813        81  DOPC      H18Y           31.5227514967        5.3198393285       -0.1336518896  MEMB      53              0.0000000000
      7814        81  DOPC      H18Z           33.3633643094        5.4188693737       -0.3172218039  MEMB      53              0.0000000000
      7815        82  DOPC      N             -22.3156960029      -28.6146026106       19.8884842915  MEMB      54              0.0000000000
      7816        82  DOPC      C12           -23.7195233264      -28.4632832541       19.2819449883  MEMB      54              0.0000000000
      7817        82  DOPC      H12A          -24.4123886248      -28.3367651648       20.1006823279  MEMB      54              0.0000000000
      7818        82  DOPC      H12B          -23.9958987500      -29.3358276065       18.7086360981  MEMB      54              0.0000000000
      7819        82  DOPC      C13           -22.3137457169      -29.8361166717       20.7421722680  MEMB      54              0.0000000000
      7820        82  DOPC      H13A          -22.5228176674      -30.7224878277       20.1616248064  MEMB      54              0.0000000000
      7821        82  DOPC      H13B          -21.3311340754      -30.0632711531       21.1285333066  MEMB      54              0.0000000000
      7822        82  DOPC      H13C          -23.0429090993      -29.5357205745       21.4800631647  MEMB      54              0.0000000000
      7823        82  DOPC      C14           -21.8926385477      -27.4497514577       20.6517195624  MEMB      54              0.0000000000
      7824        82  DOPC      H14A          -20.9212436383      -27.7362067315       21.0268666234  MEMB      54              0.0000000000
      7825        82  DOPC      H14B          -21.6831869738      -26.6493730842       19.9575117356  MEMB      54              0.0000000000
      7826        82  DOPC      H14C          -22.5865645451      -27.1788517725       21.4336914103  MEMB      54              0.0000000000
      7827        82  DOPC      C15           -21.3625197572      -28.8108183118       18.7669310242  MEMB      54              0.0000000000
      7828        82  DOPC      H15A          -20.3762031879      -28.9550803199       19.1825845255  MEMB      54              0.0000000000
      7829        82  DOPC      H15B          -21.2982237026      -27.9474552141       18.1212760860  MEMB      54              0.0000000000
      7830        82  DOPC      H15C          -21.6641757505      -29.6601039819       18.1718533075  MEMB      54              0.0000000000
      7831        82  DOPC      C11           -24.0492642423      -27.2585569765       18.3321835437  MEMB      54              0.0000000000
      7832        82  DOPC      H11A          -23.5154426120      -27.5220485622       17.3941389603  MEMB      54              0.0000000000
      7833        82  DOPC      H11B          -25.1508436685      -27.2748574410       18.1887328588  MEMB      54              0.0000000000
      7834        82  DOPC      P             -24.0473627486      -24.5799668088       18.2670171428  MEMB      54              0.0000000000
      7835        82  DOPC      O13           -23.5364680351      -23.6223982924       19.2450005272  MEMB      54              0.0000000000
      7836        82  DOPC      O14           -25.4810666589      -24.5341806525       18.1320432339  MEMB      54              0.0000000000
      7837        82  DOPC      O12           -23.6054108673      -26.0141708447       18.8166599119  MEMB      54              0.0000000000
      7838        82  DOPC      O11           -23.3854577991      -24.3665409190       16.8758435316  MEMB      54              0.0000000000
      7839        82  DOPC      C1            -21.9686256039      -24.3460463540       16.7168655857  MEMB      54              0.0000000000
      7840        82  DOPC      HA            -21.4240834200      -25.0225882690       17.4097477395  MEMB      54              0.0000000000
      7841        82  DOPC      HB            -21.5335933422      -23.3422198074       16.9102568210  MEMB      54              0.0000000000
      7842        82  DOPC      C2            -21.6794808578      -24.7570468184       15.2178037707  MEMB      54              0.0000000000
      7843        82  DOPC      HS            -20.6321602961      -24.4119547432       15.0823332905  MEMB      54              0.0000000000
      7844        82  DOPC      O21           -22.6378391801      -24.1759311472       14.2941726099  MEMB      54              0.0000000000
      7845        82  DOPC      C21           -22.2606397571      -22.9832252793       13.6661445012  MEMB      54              0.0000000000
      7846        82  DOPC      O22           -21.1848737647      -22.4568457511       13.8663487551  MEMB      54              0.0000000000
      7847        82  DOPC      C22           -23.2773410631      -22.6477909483       12.6131866957  MEMB      54              0.0000000000
      7848        82  DOPC      H2R           -23.2684537521      -21.5498171366       12.4437891387  MEMB      54              0.0000000000
      7849        82  DOPC      H2S           -24.2984612709      -22.9012362186       12.9701177139  MEMB      54              0.0000000000
      7850        82  DOPC      C3            -21.7587435639      -26.2791667347       15.1450513908  MEMB      54              0.0000000000
      7851        82  DOPC      HX            -22.6796277232      -26.6851466572       15.6156614683  MEMB      54              0.0000000000
      7852        82  DOPC      HY            -20.9177363819      -26.7239746276       15.7187880272  MEMB      54              0.0000000000
      7853        82  DOPC      O31           -21.7041525817      -26.7802881239       13.8474347817  MEMB      54              0.0000000000
      7854        82  DOPC      C31           -22.8388753367      -26.9262783565       13.1837781997  MEMB      54              0.0000000000
      7855        82  DOPC      O32           -23.9146718162      -26.9072151340       13.7851290028  MEMB      54              0.0000000000
      7856        82  DOPC      C32           -22.5405944469      -27.1882706380       11.7252448660  MEMB      54              0.0000000000
      7857        82  DOPC      H2X           -22.6686134287      -26.2334430298       11.1718587997  MEMB      54              0.0000000000
      7858        82  DOPC      H2Y           -21.5141473654      -27.5772205474       11.5536487849  MEMB      54              0.0000000000
      7859        82  DOPC      C23           -23.0287016511      -23.4880869378       11.2954235034  MEMB      54              0.0000000000
      7860        82  DOPC      H3R           -23.2874233828      -24.4959101693       11.6848803639  MEMB      54              0.0000000000
      7861        82  DOPC      H3S           -21.9673251223      -23.4435906726       10.9701231407  MEMB      54              0.0000000000
      7862        82  DOPC      C24           -23.9931911221      -23.0893990604       10.1730741103  MEMB      54              0.0000000000
      7863        82  DOPC      H4R           -23.8876064476      -22.0556653825        9.7799228429  MEMB      54              0.0000000000
      7864        82  DOPC      H4S           -24.9718392826      -23.1235857418       10.6978592576  MEMB      54              0.0000000000
      7865        82  DOPC      C25           -23.9577386611      -23.9124536161        8.8389572918  MEMB      54              0.0000000000
      7866        82  DOPC      H5R           -24.8951327564      -23.7734083694        8.2590614521  MEMB      54              0.0000000000
      7867        82  DOPC      H5S           -24.0110683275      -24.9783516867        9.1477261240  MEMB      54              0.0000000000
      7868        82  DOPC      C26           -22.8933780800      -23.5654730799        7.7934931925  MEMB      54              0.0000000000
      7869        82  DOPC      H6R           -21.8830911274      -24.0161438652        7.8961434875  MEMB      54              0.0000000000
      7870        82  DOPC      H6S           -22.6970306827      -22.4720829490        7.7771575222  MEMB      54              0.0000000000
      7871        82  DOPC      C27           -23.4441623455      -23.8907810820        6.4312043285  MEMB      54              0.0000000000
      7872        82  DOPC      H7R           -24.3252752303      -23.2525312095        6.2062640087  MEMB      54              0.0000000000
      7873        82  DOPC      H7S           -23.7314573615      -24.9631820895        6.3895061806  MEMB      54              0.0000000000
      7874        82  DOPC      C28           -22.4550657832      -23.6613188551        5.2466185321  MEMB      54              0.0000000000
      7875        82  DOPC      H8R           -21.5796970078      -24.3065461801        5.4740650555  MEMB      54              0.0000000000
      7876        82  DOPC      H8S           -22.0259250091      -22.6386179117        5.3117505403  MEMB      54              0.0000000000
      7877        82  DOPC      C29           -22.8238589659      -23.9433941108        3.8778352887  MEMB      54              0.0000000000
      7878        82  DOPC      H9R           -23.9157864216      -23.8327064419        3.8040612983  MEMB      54              0.0000000000
      7879        82  DOPC      C210          -22.0814873874      -24.2539125806        2.8333081451  MEMB      54              0.0000000000
      7880        82  DOPC      H10R          -22.5294033638      -24.1538462623        1.8336278189  MEMB      54              0.0000000000
      7881        82  DOPC      C211          -20.5404498963      -24.3582264866        2.8667389027  MEMB      54              0.0000000000
      7882        82  DOPC      H11R          -20.0911832777      -23.8780489114        3.7622333124  MEMB      54              0.0000000000
      7883        82  DOPC      H11S          -20.1130686456      -23.8296942125        1.9879223006  MEMB      54              0.0000000000
      7884        82  DOPC      C212          -19.9148539342      -25.7711988556        2.9037998242  MEMB      54              0.0000000000
      7885        82  DOPC      H12R          -20.3647082430      -26.3216249783        3.7576049901  MEMB      54              0.0000000000
      7886        82  DOPC      H12S          -18.8935393168      -25.5630253574        3.2883788685  MEMB      54              0.0000000000
      7887        82  DOPC      C213          -19.9324999876      -26.5687357915        1.6015934840  MEMB      54              0.0000000000
      7888        82  DOPC      H13R          -19.6384826244      -25.8376967203        0.8183570778  MEMB      54              0.0000000000
      7889        82  DOPC      H13S          -20.9465096823      -27.0151899041        1.5192282954  MEMB      54              0.0000000000
      7890        82  DOPC      C214          -19.0789658415      -27.8277272731        1.5219929010  MEMB      54              0.0000000000
      7891        82  DOPC      H14R          -19.3206603058      -28.4711980249        2.3948325258  MEMB      54              0.0000000000
      7892        82  DOPC      H14S          -18.0028503271      -27.5798810794        1.6439302793  MEMB      54              0.0000000000
      7893        82  DOPC      C215          -19.2094173906      -28.5799049623        0.1942016817  MEMB      54              0.0000000000
      7894        82  DOPC      H15R          -18.4606651915      -29.3970629447        0.2712952677  MEMB      54              0.0000000000
      7895        82  DOPC      H15S          -19.0607451111      -27.9256121586       -0.6913042219  MEMB      54              0.0000000000
      7896        82  DOPC      C216          -20.6236109014      -29.1791180134       -0.0520855336  MEMB      54              0.0000000000
      7897        82  DOPC      H16R          -21.3316079761      -28.3288406059       -0.1525310557  MEMB      54              0.0000000000
      7898        82  DOPC      H16S          -20.8918935106      -29.8657612625        0.7790986802  MEMB      54              0.0000000000
      7899        82  DOPC      C217          -20.6691740215      -29.7109606224       -1.5198200826  MEMB      54              0.0000000000
      7900        82  DOPC      H17R          -20.0285075954      -30.6154131733       -1.4434441581  MEMB      54              0.0000000000
      7901        82  DOPC      H17S          -20.2390161690      -28.9782941673       -2.2357006599  MEMB      54              0.0000000000
      7902        82  DOPC      C218          -22.0499833667      -30.1500571009       -2.0030668124  MEMB      54              0.0000000000
      7903        82  DOPC      H18R          -22.1350176238      -30.2411986511       -3.1070531038  MEMB      54              0.0000000000
      7904        82  DOPC      H18S          -22.8863853292      -29.5395712133       -1.6004997742  MEMB      54              0.0000000000
      7905        82  DOPC      H18T          -22.2071267442      -31.1454738280       -1.5353353492  MEMB      54              0.0000000000
      7906        82  DOPC      C33           -23.5294766060      -28.1686563871       11.1085814610  MEMB      54              0.0000000000
      7907        82  DOPC      H3X           -24.5639689630      -27.8517571319       11.3610126235  MEMB      54              0.0000000000
      7908        82  DOPC      H3Y           -23.2965390914      -29.1900206792       11.4785491752  MEMB      54              0.0000000000
      7909        82  DOPC      C34           -23.4009952068      -28.3777069062        9.5479358876  MEMB      54              0.0000000000
      7910        82  DOPC      H4X           -23.7502602080      -27.4932248518        8.9734567016  MEMB      54              0.0000000000
      7911        82  DOPC      H4Y           -24.0428509353      -29.2544383414        9.3162378287  MEMB      54              0.0000000000
      7912        82  DOPC      C35           -21.9500581674      -28.7983265156        9.1721415498  MEMB      54              0.0000000000
      7913        82  DOPC      H5X           -21.6898402889      -29.7215747180        9.7326949384  MEMB      54              0.0000000000
      7914        82  DOPC      H5Y           -21.3073765839      -27.9277051353        9.4237363040  MEMB      54              0.0000000000
      7915        82  DOPC      C36           -21.7211262570      -29.1086711505        7.6690149128  MEMB      54              0.0000000000
      7916        82  DOPC      H6X           -20.6252886624      -28.9822443578        7.5368120334  MEMB      54              0.0000000000
      7917        82  DOPC      H6Y           -21.9415434125      -30.1942099065        7.5833227735  MEMB      54              0.0000000000
      7918        82  DOPC      C37           -22.5629050110      -28.2893706332        6.6239746978  MEMB      54              0.0000000000
      7919        82  DOPC      H7X           -23.6204666531      -28.6267337247        6.6694777569  MEMB      54              0.0000000000
      7920        82  DOPC      H7Y           -22.4211339273      -27.2251053288        6.9095643171  MEMB      54              0.0000000000
      7921        82  DOPC      C38           -22.0823273607      -28.4567077802        5.1734843484  MEMB      54              0.0000000000
      7922        82  DOPC      H8X           -21.0012282031      -28.2506782906        5.0215058028  MEMB      54              0.0000000000
      7923        82  DOPC      H8Y           -22.6208054656      -27.6334005969        4.6572216595  MEMB      54              0.0000000000
      7924        82  DOPC      C39           -22.5016334695      -29.7021673466        4.4993526663  MEMB      54              0.0000000000
      7925        82  DOPC      H9X           -21.9411535354      -30.5845029311        4.8419108276  MEMB      54              0.0000000000
      7926        82  DOPC      C310          -23.6091430451      -29.8912541806        3.7191120986  MEMB      54              0.0000000000
      7927        82  DOPC      H10X          -23.7067244506      -30.8160924571        3.1316153634  MEMB      54              0.0000000000
      7928        82  DOPC      C311          -24.6673514963      -28.9233154736        3.3289088452  MEMB      54              0.0000000000
      7929        82  DOPC      H11X          -24.4402724057      -27.9273394559        3.7657021068  MEMB      54              0.0000000000
      7930        82  DOPC      H11Y          -25.6254108140      -29.1845744684        3.8270924901  MEMB      54              0.0000000000
      7931        82  DOPC      C312          -24.8590271111      -28.9738803725        1.8515684364  MEMB      54              0.0000000000
      7932        82  DOPC      H12X          -24.9909292177      -30.0033263793        1.4551302385  MEMB      54              0.0000000000
      7933        82  DOPC      H12Y          -23.8827838477      -28.6369559995        1.4419918801  MEMB      54              0.0000000000
      7934        82  DOPC      C313          -26.0894472702      -28.2661622893        1.2712627155  MEMB      54              0.0000000000
      7935        82  DOPC      H13X          -26.5787121538      -28.8900874048        0.4930230984  MEMB      54              0.0000000000
      7936        82  DOPC      H13Y          -26.8786942025      -28.0504297345        2.0228411186  MEMB      54              0.0000000000
      7937        82  DOPC      C314          -25.8546101169      -26.8892426415        0.6879821730  MEMB      54              0.0000000000
      7938        82  DOPC      H14X          -26.7906173812      -26.3013336682        0.5758447729  MEMB      54              0.0000000000
      7939        82  DOPC      H14Y          -25.3402155350      -26.3178460917        1.4899954581  MEMB      54              0.0000000000
      7940        82  DOPC      C315          -25.0908665952      -26.7552552256       -0.7059289792  MEMB      54              0.0000000000
      7941        82  DOPC      H15X          -25.5928253419      -26.1461549462       -1.4878202917  MEMB      54              0.0000000000
      7942        82  DOPC      H15Y          -25.0464366682      -27.7273765765       -1.2419581957  MEMB      54              0.0000000000
      7943        82  DOPC      C316          -23.6126665466      -26.3365402520       -0.6661754459  MEMB      54              0.0000000000
      7944        82  DOPC      H16X          -23.6196540136      -25.3792512709       -0.1023762960  MEMB      54              0.0000000000
      7945        82  DOPC      H16Y          -23.0917595311      -27.0974026374       -0.0464460800  MEMB      54              0.0000000000
      7946        82  DOPC      C317          -22.9241790824      -26.1030143327       -2.0707111315  MEMB      54              0.0000000000
      7947        82  DOPC      H17X          -22.8763797902      -27.0862874207       -2.5856969077  MEMB      54              0.0000000000
      7948        82  DOPC      H17Y          -23.6131287256      -25.4583769068       -2.6573223347  MEMB      54              0.0000000000
      7949        82  DOPC      C318          -21.5319788959      -25.5501453181       -1.8586909873  MEMB      54              0.0000000000
      7950        82  DOPC      H18X          -21.5629270377      -24.7897107187       -1.0493067974  MEMB      54              0.0000000000
      7951        82  DOPC      H18Y          -20.8360520494      -26.3348761973       -1.4923509811  MEMB      54              0.0000000000
      7952        82  DOPC      H18Z          -21.2256033548      -25.0065546990       -2.7779088490  MEMB      54              0.0000000000
      7953        83  DOPC      N             -14.8958607060      -31.7092705665       20.9660053888  MEMB      55              0.0000000000
      7954        83  DOPC      C12           -15.6954643047      -30.8459671134       19.9877244466  MEMB      55              0.0000000000
      7955        83  DOPC      H12A          -14.9785088944      -30.2553806474       19.4367411649  MEMB      55              0.0000000000
      7956        83  DOPC      H12B          -16.1281281348      -30.1370296745       20.6780937901  MEMB      55              0.0000000000
      7957        83  DOPC      C13           -14.0258609845      -30.8234344517       21.7934171463  MEMB      55              0.0000000000
      7958        83  DOPC      H13A          -14.5916830467      -30.0253475431       22.2509130616  MEMB      55              0.0000000000
      7959        83  DOPC      H13B          -13.4382880311      -31.3182520958       22.5525702726  MEMB      55              0.0000000000
      7960        83  DOPC      H13C          -13.2541308746      -30.3667737206       21.1915089060  MEMB      55              0.0000000000
      7961        83  DOPC      C14           -13.9632699627      -32.6349936559       20.1952657880  MEMB      55              0.0000000000
      7962        83  DOPC      H14A          -14.4622161524      -32.9861997151       19.3041389922  MEMB      55              0.0000000000
      7963        83  DOPC      H14B          -13.0381561611      -32.1019422872       20.0327205613  MEMB      55              0.0000000000
      7964        83  DOPC      H14C          -13.7411247908      -33.5027471413       20.7986357587  MEMB      55              0.0000000000
      7965        83  DOPC      C15           -15.7669541103      -32.5101976448       21.8643264881  MEMB      55              0.0000000000
      7966        83  DOPC      H15A          -16.4779849451      -31.7987560525       22.2576279689  MEMB      55              0.0000000000
      7967        83  DOPC      H15B          -15.2339169318      -32.9342927650       22.7024282912  MEMB      55              0.0000000000
      7968        83  DOPC      H15C          -16.2917777579      -33.2660299943       21.2989260379  MEMB      55              0.0000000000
      7969        83  DOPC      C11           -16.7612829656      -31.4963190329       19.1183021767  MEMB      55              0.0000000000
      7970        83  DOPC      H11A          -17.5615027230      -31.8932326760       19.7789298121  MEMB      55              0.0000000000
      7971        83  DOPC      H11B          -17.3206218566      -30.7754466637       18.4844222450  MEMB      55              0.0000000000
      7972        83  DOPC      P             -16.5442308292      -33.0526358581       16.9529362162  MEMB      55              0.0000000000
      7973        83  DOPC      O13           -17.6717259143      -32.2015359860       16.4741251370  MEMB      55              0.0000000000
      7974        83  DOPC      O14           -16.7003630745      -34.5305600750       17.0265536431  MEMB      55              0.0000000000
      7975        83  DOPC      O12           -16.2158808928      -32.5983508558       18.4500091533  MEMB      55              0.0000000000
      7976        83  DOPC      O11           -15.1794764025      -32.6972397989       16.1713344143  MEMB      55              0.0000000000
      7977        83  DOPC      C1            -14.5539848035      -31.3992496938       16.2338904247  MEMB      55              0.0000000000
      7978        83  DOPC      HA            -13.6941627962      -31.5195265848       16.9271152659  MEMB      55              0.0000000000
      7979        83  DOPC      HB            -15.2202445026      -30.6942038022       16.7754893833  MEMB      55              0.0000000000
      7980        83  DOPC      C2            -14.2091407888      -30.8225285914       14.9009148148  MEMB      55              0.0000000000
      7981        83  DOPC      HS            -13.9692335352      -29.7399886061       14.9707198275  MEMB      55              0.0000000000
      7982        83  DOPC      O21           -15.2097627826      -31.0710501776       13.8731497531  MEMB      55              0.0000000000
      7983        83  DOPC      C21           -16.1989980676      -30.1493766886       13.8950025949  MEMB      55              0.0000000000
      7984        83  DOPC      O22           -16.3076642872      -29.2100891483       14.6340887589  MEMB      55              0.0000000000
      7985        83  DOPC      C22           -17.0383463053      -30.2463955876       12.5968139115  MEMB      55              0.0000000000
      7986        83  DOPC      H2R           -18.1019571037      -30.0639536216       12.8609500179  MEMB      55              0.0000000000
      7987        83  DOPC      H2S           -17.0740014728      -31.2676203262       12.1607518661  MEMB      55              0.0000000000
      7988        83  DOPC      C3            -12.8537762856      -31.4413266509       14.4167425130  MEMB      55              0.0000000000
      7989        83  DOPC      HX            -13.0153223608      -32.5340713276       14.2978607376  MEMB      55              0.0000000000
      7990        83  DOPC      HY            -12.0989987788      -31.1870037957       15.1913080139  MEMB      55              0.0000000000
      7991        83  DOPC      O31           -12.5685220217      -30.9987976182       13.0979826979  MEMB      55              0.0000000000
      7992        83  DOPC      C31           -11.6584281026      -30.0141375033       12.9982497450  MEMB      55              0.0000000000
      7993        83  DOPC      O32           -11.0065636534      -29.4456295888       13.8686168992  MEMB      55              0.0000000000
      7994        83  DOPC      C32           -11.3927727110      -29.7852706033       11.4982312029  MEMB      55              0.0000000000
      7995        83  DOPC      H2X           -11.6026279483      -30.7603200005       11.0087824206  MEMB      55              0.0000000000
      7996        83  DOPC      H2Y           -12.0788137566      -29.0650801198       11.0032626162  MEMB      55              0.0000000000
      7997        83  DOPC      C23           -16.4994089573      -29.1471481463       11.6455792071  MEMB      55              0.0000000000
      7998        83  DOPC      H3R           -16.2971652329      -28.1475038266       12.0861803558  MEMB      55              0.0000000000
      7999        83  DOPC      H3S           -17.3169645892      -28.9425792880       10.9216487214  MEMB      55              0.0000000000
      8000        83  DOPC      C24           -15.1786446030      -29.5715418863       11.0022174040  MEMB      55              0.0000000000
      8001        83  DOPC      H4R           -14.5137123624      -29.6601637611       11.8878426071  MEMB      55              0.0000000000
      8002        83  DOPC      H4S           -14.8684678189      -28.7462110599       10.3262439673  MEMB      55              0.0000000000
      8003        83  DOPC      C25           -15.2355493573      -30.9077401575       10.3078575731  MEMB      55              0.0000000000
      8004        83  DOPC      H5R           -15.3368748602      -31.7847588432       10.9823146824  MEMB      55              0.0000000000
      8005        83  DOPC      H5S           -14.1855994253      -31.1138444685       10.0087812006  MEMB      55              0.0000000000
      8006        83  DOPC      C26           -16.2251811716      -31.1842891311        9.0903547632  MEMB      55              0.0000000000
      8007        83  DOPC      H6R           -17.1963148814      -31.5584833529        9.4791989614  MEMB      55              0.0000000000
      8008        83  DOPC      H6S           -15.7315440805      -31.9460446312        8.4497526838  MEMB      55              0.0000000000
      8009        83  DOPC      C27           -16.5671450962      -30.0469803127        8.1432739945  MEMB      55              0.0000000000
      8010        83  DOPC      H7R           -17.1264671630      -29.2857319183        8.7280648171  MEMB      55              0.0000000000
      8011        83  DOPC      H7S           -17.3414789637      -30.4925647095        7.4828327409  MEMB      55              0.0000000000
      8012        83  DOPC      C28           -15.3839438793      -29.4019761924        7.3621397138  MEMB      55              0.0000000000
      8013        83  DOPC      H8R           -14.8690938191      -30.2863091487        6.9294671764  MEMB      55              0.0000000000
      8014        83  DOPC      H8S           -14.7702124946      -28.9095951004        8.1464970797  MEMB      55              0.0000000000
      8015        83  DOPC      C29           -15.7857509899      -28.4588254824        6.2684966427  MEMB      55              0.0000000000
      8016        83  DOPC      H9R           -16.5661648291      -27.7269784976        6.5241419633  MEMB      55              0.0000000000
      8017        83  DOPC      C210          -15.2624575202      -28.3983912308        5.0044643934  MEMB      55              0.0000000000
      8018        83  DOPC      H10R          -15.7994970894      -27.7969962416        4.2561914859  MEMB      55              0.0000000000
      8019        83  DOPC      C211          -14.1819461735      -29.2188131994        4.3842495802  MEMB      55              0.0000000000
      8020        83  DOPC      H11R          -14.5494754792      -29.5375922742        3.3854384142  MEMB      55              0.0000000000
      8021        83  DOPC      H11S          -14.0110115114      -30.1308425479        4.9952357277  MEMB      55              0.0000000000
      8022        83  DOPC      C212          -12.8910751105      -28.5271418951        4.0361966829  MEMB      55              0.0000000000
      8023        83  DOPC      H12R          -12.3410245263      -28.1787895974        4.9364272252  MEMB      55              0.0000000000
      8024        83  DOPC      H12S          -12.9907671791      -27.6127139483        3.4131364256  MEMB      55              0.0000000000
      8025        83  DOPC      C213          -11.9190750500      -29.4562219120        3.2905544285  MEMB      55              0.0000000000
      8026        83  DOPC      H13R          -11.6744082256      -30.3228118391        3.9413094061  MEMB      55              0.0000000000
      8027        83  DOPC      H13S          -10.9846639912      -28.8628485092        3.3859721228  MEMB      55              0.0000000000
      8028        83  DOPC      C214          -12.3856195587      -29.9000477126        1.8673128257  MEMB      55              0.0000000000
      8029        83  DOPC      H14R          -12.7940121500      -28.9985160456        1.3625580612  MEMB      55              0.0000000000
      8030        83  DOPC      H14S          -13.1759149928      -30.6741880868        1.9695891805  MEMB      55              0.0000000000
      8031        83  DOPC      C215          -11.3309715208      -30.4978785449        0.8976806912  MEMB      55              0.0000000000
      8032        83  DOPC      H15R          -10.9418384847      -31.4487571318        1.3204418405  MEMB      55              0.0000000000
      8033        83  DOPC      H15S          -10.4879127624      -29.7792461172        0.8131774563  MEMB      55              0.0000000000
      8034        83  DOPC      C216          -11.8315054914      -30.6226672252       -0.5669811102  MEMB      55              0.0000000000
      8035        83  DOPC      H16R          -12.0759889566      -29.6915909883       -1.1216386774  MEMB      55              0.0000000000
      8036        83  DOPC      H16S          -12.7402393557      -31.2545988905       -0.4711333189  MEMB      55              0.0000000000
      8037        83  DOPC      C217          -10.8252915372      -31.2805174781       -1.6170891888  MEMB      55              0.0000000000
      8038        83  DOPC      H17R          -11.2619858529      -31.0002393543       -2.5994654989  MEMB      55              0.0000000000
      8039        83  DOPC      H17S          -10.9402611719      -32.3594638172       -1.3783897032  MEMB      55              0.0000000000
      8040        83  DOPC      C218           -9.3280827533      -30.9671925614       -1.6151456191  MEMB      55              0.0000000000
      8041        83  DOPC      H18R           -9.1265719199      -29.8978771810       -1.8393756222  MEMB      55              0.0000000000
      8042        83  DOPC      H18S           -8.9024795824      -31.5926912568       -2.4287388811  MEMB      55              0.0000000000
      8043        83  DOPC      H18T           -8.8325815775      -31.4406023981       -0.7406850340  MEMB      55              0.0000000000
      8044        83  DOPC      C33            -9.9370961649      -29.3277565086       11.2762516163  MEMB      55              0.0000000000
      8045        83  DOPC      H3X            -9.2977229056      -30.1431832535       11.6770035318  MEMB      55              0.0000000000
      8046        83  DOPC      H3Y            -9.7547443256      -28.3294452519       11.7284062156  MEMB      55              0.0000000000
      8047        83  DOPC      C34            -9.5999926934      -29.0796439084        9.7673545948  MEMB      55              0.0000000000
      8048        83  DOPC      H4X            -8.5724767509      -28.6654459969        9.6838527875  MEMB      55              0.0000000000
      8049        83  DOPC      H4Y           -10.2259470363      -28.3054827281        9.2742250870  MEMB      55              0.0000000000
      8050        83  DOPC      C35            -9.6121914090      -30.4283746238        8.9809320648  MEMB      55              0.0000000000
      8051        83  DOPC      H5X           -10.5380151480      -31.0219651047        8.8233831092  MEMB      55              0.0000000000
      8052        83  DOPC      H5Y            -8.9621422883      -31.0794203583        9.6037454345  MEMB      55              0.0000000000
      8053        83  DOPC      C36            -8.9545783816      -30.3042095927        7.6037940854  MEMB      55              0.0000000000
      8054        83  DOPC      H6X            -9.3673382889      -29.5153594778        6.9392142882  MEMB      55              0.0000000000
      8055        83  DOPC      H6Y            -7.8696358434      -30.1205478201        7.7570565129  MEMB      55              0.0000000000
      8056        83  DOPC      C37            -8.9786530579      -31.6426329507        6.8229464136  MEMB      55              0.0000000000
      8057        83  DOPC      H7X            -7.9458598367      -31.9195655108        6.5213378120  MEMB      55              0.0000000000
      8058        83  DOPC      H7Y            -9.2670564589      -32.4780329968        7.4961853928  MEMB      55              0.0000000000
      8059        83  DOPC      C38           -10.0309095873      -31.5222795414        5.6956833695  MEMB      55              0.0000000000
      8060        83  DOPC      H8X            -9.7082491319      -30.7508830163        4.9641382492  MEMB      55              0.0000000000
      8061        83  DOPC      H8Y           -10.9698586149      -31.2059062800        6.1982795673  MEMB      55              0.0000000000
      8062        83  DOPC      C39           -10.4159513422      -32.8204942574        4.9995431842  MEMB      55              0.0000000000
      8063        83  DOPC      H9X            -9.5799872514      -33.4401079735        4.6428320448  MEMB      55              0.0000000000
      8064        83  DOPC      C310          -11.6346687992      -33.3609197464        4.8985548415  MEMB      55              0.0000000000
      8065        83  DOPC      H10X          -11.7028338974      -34.3572647268        4.4374152496  MEMB      55              0.0000000000
      8066        83  DOPC      C311          -12.9737715421      -32.8877607394        5.3795836679  MEMB      55              0.0000000000
      8067        83  DOPC      H11X          -12.8088688607      -31.8903503126        5.8403449502  MEMB      55              0.0000000000
      8068        83  DOPC      H11Y          -13.2743065438      -33.5342779055        6.2316492837  MEMB      55              0.0000000000
      8069        83  DOPC      C312          -14.1849731893      -32.8773309925        4.4148173452  MEMB      55              0.0000000000
      8070        83  DOPC      H12X          -13.9379139266      -32.3719911425        3.4567393339  MEMB      55              0.0000000000
      8071        83  DOPC      H12Y          -14.9525838966      -32.2397808937        4.9033098769  MEMB      55              0.0000000000
      8072        83  DOPC      C313          -14.6981606352      -34.3707094195        4.2203018692  MEMB      55              0.0000000000
      8073        83  DOPC      H13X          -13.8637611195      -34.9069976023        3.7198088292  MEMB      55              0.0000000000
      8074        83  DOPC      H13Y          -14.7904669576      -34.9105415578        5.1869361496  MEMB      55              0.0000000000
      8075        83  DOPC      C314          -16.0317649751      -34.5185532260        3.3900308289  MEMB      55              0.0000000000
      8076        83  DOPC      H14X          -16.2129674167      -35.5786887428        3.1114635298  MEMB      55              0.0000000000
      8077        83  DOPC      H14Y          -16.9065945112      -34.1728483337        3.9812012270  MEMB      55              0.0000000000
      8078        83  DOPC      C315          -16.0599025232      -33.7189592158        2.0702263361  MEMB      55              0.0000000000
      8079        83  DOPC      H15X          -15.9317527966      -32.6299896761        2.2492339327  MEMB      55              0.0000000000
      8080        83  DOPC      H15Y          -17.0656540748      -33.7777545011        1.6019013578  MEMB      55              0.0000000000
      8081        83  DOPC      C316          -14.9804490975      -34.3656506650        1.1230174592  MEMB      55              0.0000000000
      8082        83  DOPC      H16X          -13.9845859488      -34.3909716670        1.6148872266  MEMB      55              0.0000000000
      8083        83  DOPC      H16Y          -15.3107617649      -35.4049739522        0.9108344168  MEMB      55              0.0000000000
      8084        83  DOPC      C317          -14.9155222692      -33.5457029568       -0.1659073865  MEMB      55              0.0000000000
      8085        83  DOPC      H17X          -14.3703203197      -32.6193002728        0.1149024696  MEMB      55              0.0000000000
      8086        83  DOPC      H17Y          -14.2768795226      -34.0460063372       -0.9249534093  MEMB      55              0.0000000000
      8087        83  DOPC      C318          -16.1291928284      -33.0223871005       -0.8614164353  MEMB      55              0.0000000000
      8088        83  DOPC      H18X          -15.9380980429      -32.5459964206       -1.8467376203  MEMB      55              0.0000000000
      8089        83  DOPC      H18Y          -16.9075139780      -33.7831799785       -1.0844222597  MEMB      55              0.0000000000
      8090        83  DOPC      H18Z          -16.6161367489      -32.2292400036       -0.2546833145  MEMB      55              0.0000000000
      8091        84  DOPC      N              23.6560028435      -30.5271181412       18.4435956834  MEMB      56              0.0000000000
      8092        84  DOPC      C12            23.5130530759      -29.7652731133       19.7934980580  MEMB      56              0.0000000000
      8093        84  DOPC      H12A           24.2852997274      -30.0607959397       20.4882651691  MEMB      56              0.0000000000
      8094        84  DOPC      H12B           22.6013661773      -30.1400992664       20.2347825798  MEMB      56              0.0000000000
      8095        84  DOPC      C13            22.5778735775      -30.1443789479       17.4606477927  MEMB      56              0.0000000000
      8096        84  DOPC      H13A           21.6029285129      -30.4688483928       17.7932157174  MEMB      56              0.0000000000
      8097        84  DOPC      H13B           22.7125018079      -29.1168733805       17.1564971447  MEMB      56              0.0000000000
      8098        84  DOPC      H13C           22.7504230333      -30.7723845080       16.5991167209  MEMB      56              0.0000000000
      8099        84  DOPC      C14            23.5279327335      -32.0021828934       18.6588697164  MEMB      56              0.0000000000
      8100        84  DOPC      H14A           22.4816077969      -32.1527986509       18.8800470851  MEMB      56              0.0000000000
      8101        84  DOPC      H14B           24.0331631521      -32.5648793614       17.8878218837  MEMB      56              0.0000000000
      8102        84  DOPC      H14C           24.1060917934      -32.2170702634       19.5454109596  MEMB      56              0.0000000000
      8103        84  DOPC      C15            25.0160632176      -30.3138267607       17.8654476294  MEMB      56              0.0000000000
      8104        84  DOPC      H15A           25.1058673983      -31.0531626962       17.0833240833  MEMB      56              0.0000000000
      8105        84  DOPC      H15B           25.7980591521      -30.5196496095       18.5813520993  MEMB      56              0.0000000000
      8106        84  DOPC      H15C           25.1491818977      -29.3369907340       17.4244592149  MEMB      56              0.0000000000
      8107        84  DOPC      C11            23.4628788445      -28.2897694754       19.8331687190  MEMB      56              0.0000000000
      8108        84  DOPC      H11A           22.5683302974      -27.8793889759       19.3177157850  MEMB      56              0.0000000000
      8109        84  DOPC      H11B           23.3789033023      -28.0196147755       20.9075455546  MEMB      56              0.0000000000
      8110        84  DOPC      P              24.8877051305      -26.0892311711       19.4746466038  MEMB      56              0.0000000000
      8111        84  DOPC      O13            26.3164167664      -25.8270200556       19.2016349986  MEMB      56              0.0000000000
      8112        84  DOPC      O14            24.3482576654      -25.5690487960       20.8209113272  MEMB      56              0.0000000000
      8113        84  DOPC      O12            24.6681575381      -27.6516230432       19.3364208507  MEMB      56              0.0000000000
      8114        84  DOPC      O11            24.1350439031      -25.6255222029       18.1111586192  MEMB      56              0.0000000000
      8115        84  DOPC      C1             23.2298147983      -24.4943996272       18.1577027020  MEMB      56              0.0000000000
      8116        84  DOPC      HA             23.5817575620      -23.7419725767       18.8954769482  MEMB      56              0.0000000000
      8117        84  DOPC      HB             22.2064912943      -24.7772340445       18.4850170852  MEMB      56              0.0000000000
      8118        84  DOPC      C2             23.1489862606      -23.9390770899       16.6727130443  MEMB      56              0.0000000000
      8119        84  DOPC      HS             22.2995942527      -23.2239220836       16.7102285326  MEMB      56              0.0000000000
      8120        84  DOPC      O21            22.8059236055      -24.9269950956       15.6698368167  MEMB      56              0.0000000000
      8121        84  DOPC      C21            21.5853019640      -25.4768596879       15.6897679664  MEMB      56              0.0000000000
      8122        84  DOPC      O22            20.7366382866      -25.1351046295       16.4994171053  MEMB      56              0.0000000000
      8123        84  DOPC      C22            21.3328344943      -26.5460330373       14.5425824242  MEMB      56              0.0000000000
      8124        84  DOPC      H2R            20.3220170775      -26.4447004035       14.0928035213  MEMB      56              0.0000000000
      8125        84  DOPC      H2S            21.3611763140      -27.4910787149       15.1260257746  MEMB      56              0.0000000000
      8126        84  DOPC      C3             24.4318727899      -23.2263975345       16.1435680996  MEMB      56              0.0000000000
      8127        84  DOPC      HX             24.7108906062      -22.4016277631       16.8336584777  MEMB      56              0.0000000000
      8128        84  DOPC      HY             24.1996865240      -22.8386363686       15.1286536689  MEMB      56              0.0000000000
      8129        84  DOPC      O31            25.4679389828      -24.2976996943       16.0758827854  MEMB      56              0.0000000000
      8130        84  DOPC      C31            26.5064315993      -24.0337324725       15.3690311681  MEMB      56              0.0000000000
      8131        84  DOPC      O32            26.5850381015      -23.1521185053       14.5342510617  MEMB      56              0.0000000000
      8132        84  DOPC      C32            27.6348461621      -25.1220982525       15.7055741811  MEMB      56              0.0000000000
      8133        84  DOPC      H2X            28.6138054276      -24.8358261718       15.2651107130  MEMB      56              0.0000000000
      8134        84  DOPC      H2Y            27.8074886255      -25.2188246530       16.7988077360  MEMB      56              0.0000000000
      8135        84  DOPC      C23            22.2907818158      -26.4665389381       13.3906224496  MEMB      56              0.0000000000
      8136        84  DOPC      H3R            23.3468339885      -26.6431617563       13.6870667554  MEMB      56              0.0000000000
      8137        84  DOPC      H3S            22.2702022281      -25.4193513233       13.0200877001  MEMB      56              0.0000000000
      8138        84  DOPC      C24            21.9406492552      -27.3658599974       12.1580675386  MEMB      56              0.0000000000
      8139        84  DOPC      H4R            21.0190561787      -26.8291722906       11.8466945424  MEMB      56              0.0000000000
      8140        84  DOPC      H4S            21.7955409821      -28.4121145615       12.5024741645  MEMB      56              0.0000000000
      8141        84  DOPC      C25            23.0273353909      -27.3604908824       11.0788907447  MEMB      56              0.0000000000
      8142        84  DOPC      H5R            22.8064945428      -28.1012511867       10.2808779991  MEMB      56              0.0000000000
      8143        84  DOPC      H5S            24.0428969820      -27.6337616339       11.4370509812  MEMB      56              0.0000000000
      8144        84  DOPC      C26            23.0982597030      -26.0143429537       10.2967831973  MEMB      56              0.0000000000
      8145        84  DOPC      H6R            23.4688737009      -25.2705260539       11.0341452401  MEMB      56              0.0000000000
      8146        84  DOPC      H6S            22.1365482606      -25.5498600373        9.9906987517  MEMB      56              0.0000000000
      8147        84  DOPC      C27            24.0191906460      -26.0214300764        9.0190188636  MEMB      56              0.0000000000
      8148        84  DOPC      H7R            25.0718199674      -26.0170329335        9.3743684294  MEMB      56              0.0000000000
      8149        84  DOPC      H7S            23.9053354843      -25.0755088990        8.4475377267  MEMB      56              0.0000000000
      8150        84  DOPC      C28            23.7065475101      -27.2024320964        7.9846150233  MEMB      56              0.0000000000
      8151        84  DOPC      H8R            23.8105283437      -28.2049896217        8.4519348810  MEMB      56              0.0000000000
      8152        84  DOPC      H8S            24.4029732762      -27.1776044633        7.1193432225  MEMB      56              0.0000000000
      8153        84  DOPC      C29            22.3337458366      -26.9544317847        7.4091397445  MEMB      56              0.0000000000
      8154        84  DOPC      H9R            21.5047301448      -27.4534894078        7.9322779876  MEMB      56              0.0000000000
      8155        84  DOPC      C210           21.9725804678      -26.2016465759        6.3521808531  MEMB      56              0.0000000000
      8156        84  DOPC      H10R           20.9130872413      -26.2284496191        6.0576373854  MEMB      56              0.0000000000
      8157        84  DOPC      C211           22.9330158978      -25.4124530106        5.5196590322  MEMB      56              0.0000000000
      8158        84  DOPC      H11R           23.9267663341      -25.2253933669        5.9798652797  MEMB      56              0.0000000000
      8159        84  DOPC      H11S           22.4624225160      -24.4773074676        5.1476834863  MEMB      56              0.0000000000
      8160        84  DOPC      C212           23.3512804236      -26.3177943164        4.2841302571  MEMB      56              0.0000000000
      8161        84  DOPC      H12R           23.4606209203      -27.3737606922        4.6116982259  MEMB      56              0.0000000000
      8162        84  DOPC      H12S           24.3042141782      -25.9045954960        3.8897891651  MEMB      56              0.0000000000
      8163        84  DOPC      C213           22.2947871949      -26.2840067794        3.1566677615  MEMB      56              0.0000000000
      8164        84  DOPC      H13R           21.4332276743      -26.8824154428        3.5226512305  MEMB      56              0.0000000000
      8165        84  DOPC      H13S           22.7052651619      -26.8468567749        2.2912039614  MEMB      56              0.0000000000
      8166        84  DOPC      C214           21.8578703300      -24.8906762170        2.6118915972  MEMB      56              0.0000000000
      8167        84  DOPC      H14R           21.1505197834      -24.3667945322        3.2897741891  MEMB      56              0.0000000000
      8168        84  DOPC      H14S           21.2556541435      -25.1450018158        1.7135747934  MEMB      56              0.0000000000
      8169        84  DOPC      C215           22.9912854050      -23.8830439875        2.3507497619  MEMB      56              0.0000000000
      8170        84  DOPC      H15R           23.8348768188      -24.3143210307        1.7705121197  MEMB      56              0.0000000000
      8171        84  DOPC      H15S           23.5216814798      -23.4959011260        3.2469195175  MEMB      56              0.0000000000
      8172        84  DOPC      C216           22.5706194549      -22.6268286540        1.6187522648  MEMB      56              0.0000000000
      8173        84  DOPC      H16R           21.8335057645      -22.0734562030        2.2390457491  MEMB      56              0.0000000000
      8174        84  DOPC      H16S           22.2263841935      -22.8136865475        0.5790862372  MEMB      56              0.0000000000
      8175        84  DOPC      C217           23.7032739971      -21.5757185229        1.3848267155  MEMB      56              0.0000000000
      8176        84  DOPC      H17R           24.1392700630      -21.2632163619        2.3577463111  MEMB      56              0.0000000000
      8177        84  DOPC      H17S           23.2165885344      -20.6588973622        0.9887225691  MEMB      56              0.0000000000
      8178        84  DOPC      C218           24.6422132347      -21.8666009749        0.2092650824  MEMB      56              0.0000000000
      8179        84  DOPC      H18R           24.8840693983      -22.9509328952        0.2021261661  MEMB      56              0.0000000000
      8180        84  DOPC      H18S           25.5943631030      -21.3001521257        0.1263936583  MEMB      56              0.0000000000
      8181        84  DOPC      H18T           24.1348627181      -21.6355238830       -0.7517349732  MEMB      56              0.0000000000
      8182        84  DOPC      C33            27.1767676614      -26.4610836441       15.1321812370  MEMB      56              0.0000000000
      8183        84  DOPC      H3X            26.2046584639      -26.8703088208       15.4812647387  MEMB      56              0.0000000000
      8184        84  DOPC      H3Y            27.9717461083      -27.2008191530       15.3669613241  MEMB      56              0.0000000000
      8185        84  DOPC      C34            27.2665035149      -26.4797661118       13.6096160333  MEMB      56              0.0000000000
      8186        84  DOPC      H4X            28.3519572687      -26.3431710722       13.4160885941  MEMB      56              0.0000000000
      8187        84  DOPC      H4Y            26.6696547418      -25.6332694941       13.2077008699  MEMB      56              0.0000000000
      8188        84  DOPC      C35            26.6868357237      -27.8242903010       13.0084405017  MEMB      56              0.0000000000
      8189        84  DOPC      H5X            25.5791143566      -27.8010551892       13.0905044290  MEMB      56              0.0000000000
      8190        84  DOPC      H5Y            27.0557259027      -28.7006233414       13.5831415412  MEMB      56              0.0000000000
      8191        84  DOPC      C36            27.0255870084      -28.0509703569       11.5712219209  MEMB      56              0.0000000000
      8192        84  DOPC      H6X            26.5885046784      -27.2690879915       10.9140002157  MEMB      56              0.0000000000
      8193        84  DOPC      H6Y            28.1161755718      -27.9058197042       11.4167263141  MEMB      56              0.0000000000
      8194        84  DOPC      C37            26.5466065005      -29.4769805961       11.1339636675  MEMB      56              0.0000000000
      8195        84  DOPC      H7X            27.1073678203      -30.1516867342       11.8156085116  MEMB      56              0.0000000000
      8196        84  DOPC      H7Y            25.4563899552      -29.5481243731       11.3356744050  MEMB      56              0.0000000000
      8197        84  DOPC      C38            26.9588147167      -29.8781368164        9.7334088006  MEMB      56              0.0000000000
      8198        84  DOPC      H8X            28.0677035804      -29.9458182876        9.7231274600  MEMB      56              0.0000000000
      8199        84  DOPC      H8Y            26.7517023832      -28.9864134885        9.1039218179  MEMB      56              0.0000000000
      8200        84  DOPC      C39            26.3059556858      -31.0977742644        9.1140215007  MEMB      56              0.0000000000
      8201        84  DOPC      H9X            26.4035756768      -31.9065118384        9.8532196792  MEMB      56              0.0000000000
      8202        84  DOPC      C310           25.6797520927      -31.2130065899        7.9997052655  MEMB      56              0.0000000000
      8203        84  DOPC      H10X           25.3805626194      -32.2251829577        7.6898915031  MEMB      56              0.0000000000
      8204        84  DOPC      C311           25.3881742334      -30.1439659239        6.9784234851  MEMB      56              0.0000000000
      8205        84  DOPC      H11X           25.7895783276      -29.1588633505        7.2989988579  MEMB      56              0.0000000000
      8206        84  DOPC      H11Y           24.2925852532      -29.9665479873        6.9281366606  MEMB      56              0.0000000000
      8207        84  DOPC      C312           25.8771638275      -30.4190367020        5.5576981807  MEMB      56              0.0000000000
      8208        84  DOPC      H12X           25.4438974439      -29.6366093535        4.8986011397  MEMB      56              0.0000000000
      8209        84  DOPC      H12Y           25.3823973136      -31.3725603169        5.2742911759  MEMB      56              0.0000000000
      8210        84  DOPC      C313           27.4827135134      -30.4167387729        5.3526645180  MEMB      56              0.0000000000
      8211        84  DOPC      H13X           27.9861972682      -31.2525858332        5.8838757612  MEMB      56              0.0000000000
      8212        84  DOPC      H13Y           27.6642251223      -30.5418732419        4.2637584608  MEMB      56              0.0000000000
      8213        84  DOPC      C314           28.1911132172      -29.1111182239        5.6865613318  MEMB      56              0.0000000000
      8214        84  DOPC      H14X           27.9915406638      -28.8962237120        6.7581551689  MEMB      56              0.0000000000
      8215        84  DOPC      H14Y           29.2885759651      -29.1184819965        5.5138130913  MEMB      56              0.0000000000
      8216        84  DOPC      C315           27.6179646791      -27.8840939766        5.0053165631  MEMB      56              0.0000000000
      8217        84  DOPC      H15X           28.0665787643      -27.0316822619        5.5589049662  MEMB      56              0.0000000000
      8218        84  DOPC      H15Y           26.5262024680      -27.8942359576        5.2109224886  MEMB      56              0.0000000000
      8219        84  DOPC      C316           27.6701961357      -27.7748076024        3.5010366992  MEMB      56              0.0000000000
      8220        84  DOPC      H16X           27.3553575715      -28.7656530908        3.1093446468  MEMB      56              0.0000000000
      8221        84  DOPC      H16Y           26.9322224549      -27.0081334887        3.1817767223  MEMB      56              0.0000000000
      8222        84  DOPC      C317           29.1018907975      -27.5047738813        3.0443790357  MEMB      56              0.0000000000
      8223        84  DOPC      H17X           29.5195880191      -26.7819556624        3.7774436288  MEMB      56              0.0000000000
      8224        84  DOPC      H17Y           29.6953240107      -28.4236444327        3.2388912031  MEMB      56              0.0000000000
      8225        84  DOPC      C318           29.1173632631      -27.0758661176        1.6272698433  MEMB      56              0.0000000000
      8226        84  DOPC      H18X           28.6069598638      -27.8690826476        1.0402297341  MEMB      56              0.0000000000
      8227        84  DOPC      H18Y           28.5274876869      -26.1643337374        1.3917363659  MEMB      56              0.0000000000
      8228        84  DOPC      H18Z           30.1800599810      -26.9632268484        1.3234473933  MEMB      56              0.0000000000
      8229        85  DOPC      N              24.4615776578       30.4903702404       18.8471353007  MEMB      57              0.0000000000
      8230        85  DOPC      C12            23.1722296505       30.5851153882       18.0564605354  MEMB      57              0.0000000000
      8231        85  DOPC      H12A           22.4837045297       30.0235577124       18.6704525031  MEMB      57              0.0000000000
      8232        85  DOPC      H12B           23.3146277432       30.0535032725       17.1272075532  MEMB      57              0.0000000000
      8233        85  DOPC      C13            24.8097664337       29.0843862527       19.2486309683  MEMB      57              0.0000000000
      8234        85  DOPC      H13A           24.0921800247       28.6173992149       19.9069567237  MEMB      57              0.0000000000
      8235        85  DOPC      H13B           24.7492675574       28.5331173574       18.3218934525  MEMB      57              0.0000000000
      8236        85  DOPC      H13C           25.7652668687       28.9301178872       19.7278179043  MEMB      57              0.0000000000
      8237        85  DOPC      C14            24.4366395170       31.2725189656       20.1266345701  MEMB      57              0.0000000000
      8238        85  DOPC      H14A           23.8565731544       30.7304964066       20.8588465739  MEMB      57              0.0000000000
      8239        85  DOPC      H14B           25.4280728396       31.1982904742       20.5484759504  MEMB      57              0.0000000000
      8240        85  DOPC      H14C           24.0718638279       32.2784846975       19.9804438710  MEMB      57              0.0000000000
      8241        85  DOPC      C15            25.5498590326       31.0016375371       17.9229224290  MEMB      57              0.0000000000
      8242        85  DOPC      H15A           25.5946376378       30.2868379683       17.1145560162  MEMB      57              0.0000000000
      8243        85  DOPC      H15B           26.5102900024       31.1150304497       18.4036661400  MEMB      57              0.0000000000
      8244        85  DOPC      H15C           25.2051590729       31.9600099203       17.5636115165  MEMB      57              0.0000000000
      8245        85  DOPC      C11            22.5662462497       32.0289251653       17.8792376571  MEMB      57              0.0000000000
      8246        85  DOPC      H11A           23.2977961951       32.7482890984       17.4530084698  MEMB      57              0.0000000000
      8247        85  DOPC      H11B           21.8183701787       31.9570545409       17.0608019771  MEMB      57              0.0000000000
      8248        85  DOPC      P              20.5035759855       32.4710561572       19.4457397736  MEMB      57              0.0000000000
      8249        85  DOPC      O13            20.1880223534       33.1838569373       20.7411435046  MEMB      57              0.0000000000
      8250        85  DOPC      O14            20.0768984024       31.0723725081       19.4039178231  MEMB      57              0.0000000000
      8251        85  DOPC      O12            22.0671838670       32.5442094287       19.0925638521  MEMB      57              0.0000000000
      8252        85  DOPC      O11            19.9214126567       33.3348077413       18.2356135856  MEMB      57              0.0000000000
      8253        85  DOPC      C1             18.5202505076       33.3113961641       17.9408778249  MEMB      57              0.0000000000
      8254        85  DOPC      HA             17.9257279141       33.6452349663       18.8180412017  MEMB      57              0.0000000000
      8255        85  DOPC      HB             18.1376710633       32.2696579668       17.8885737218  MEMB      57              0.0000000000
      8256        85  DOPC      C2             18.3200030291       34.0891375302       16.6287391967  MEMB      57              0.0000000000
      8257        85  DOPC      HS             17.2633578480       34.0030450459       16.2964585244  MEMB      57              0.0000000000
      8258        85  DOPC      O21            19.1975505121       33.5312760412       15.6213921105  MEMB      57              0.0000000000
      8259        85  DOPC      C21            18.9536044733       32.2988710595       15.1402170327  MEMB      57              0.0000000000
      8260        85  DOPC      O22            17.9624470452       31.6932833080       15.2957852657  MEMB      57              0.0000000000
      8261        85  DOPC      C22            20.1514164127       31.7759344772       14.2738579143  MEMB      57              0.0000000000
      8262        85  DOPC      H2R            19.8269259173       31.7577452711       13.2114571548  MEMB      57              0.0000000000
      8263        85  DOPC      H2S            20.4468121326       30.8010255783       14.7172710568  MEMB      57              0.0000000000
      8264        85  DOPC      C3             18.5988331802       35.6074409543       16.8500414807  MEMB      57              0.0000000000
      8265        85  DOPC      HX             19.5557259689       35.8196768690       17.3731408935  MEMB      57              0.0000000000
      8266        85  DOPC      HY             17.8889818131       36.0927425159       17.5535431490  MEMB      57              0.0000000000
      8267        85  DOPC      O31            18.7068812098       36.3144373503       15.5646657409  MEMB      57              0.0000000000
      8268        85  DOPC      C31            19.9140567766       36.4598951705       15.0394568267  MEMB      57              0.0000000000
      8269        85  DOPC      O32            20.9061612467       35.9897070173       15.5796767877  MEMB      57              0.0000000000
      8270        85  DOPC      C32            19.9748753305       37.4318875531       13.8243881896  MEMB      57              0.0000000000
      8271        85  DOPC      H2X            19.0096735067       37.3275476006       13.2841848715  MEMB      57              0.0000000000
      8272        85  DOPC      H2Y            20.1474925532       38.4625551014       14.2015463078  MEMB      57              0.0000000000
      8273        85  DOPC      C23            21.4222183113       32.6847190228       14.3789868569  MEMB      57              0.0000000000
      8274        85  DOPC      H3R            21.4646613067       33.0408360447       15.4305095012  MEMB      57              0.0000000000
      8275        85  DOPC      H3S            21.1222030196       33.5129508272       13.7019756672  MEMB      57              0.0000000000
      8276        85  DOPC      C24            22.8008158446       32.0165614766       14.0920614836  MEMB      57              0.0000000000
      8277        85  DOPC      H4R            22.9392828703       31.1729467137       14.8016117892  MEMB      57              0.0000000000
      8278        85  DOPC      H4S            23.6209901660       32.7421890969       14.2794100549  MEMB      57              0.0000000000
      8279        85  DOPC      C25            22.9282102342       31.5028723193       12.6391223935  MEMB      57              0.0000000000
      8280        85  DOPC      H5R            22.6606135327       32.4190843907       12.0705554437  MEMB      57              0.0000000000
      8281        85  DOPC      H5S            22.0716881496       30.7999389692       12.5580320790  MEMB      57              0.0000000000
      8282        85  DOPC      C26            24.3097012393       30.8487696656       12.4176005263  MEMB      57              0.0000000000
      8283        85  DOPC      H6R            24.5347610477       30.0477773318       13.1538613003  MEMB      57              0.0000000000
      8284        85  DOPC      H6S            25.0649749279       31.6175031105       12.6876588224  MEMB      57              0.0000000000
      8285        85  DOPC      C27            24.7197015820       30.4165245822       10.9909667521  MEMB      57              0.0000000000
      8286        85  DOPC      H7R            24.2514114565       29.4229533180       10.8241085500  MEMB      57              0.0000000000
      8287        85  DOPC      H7S            25.7818256081       30.0979549979       10.9222171728  MEMB      57              0.0000000000
      8288        85  DOPC      C28            24.1461390821       31.3211434624        9.8384662647  MEMB      57              0.0000000000
      8289        85  DOPC      H8R            24.4407795710       32.3901407988        9.9074058038  MEMB      57              0.0000000000
      8290        85  DOPC      H8S            23.0544018942       31.2626151450       10.0359641400  MEMB      57              0.0000000000
      8291        85  DOPC      C29            24.6065698140       30.7762762751        8.4895189561  MEMB      57              0.0000000000
      8292        85  DOPC      H9R            24.6405185226       29.6815566091        8.3873640585  MEMB      57              0.0000000000
      8293        85  DOPC      C210           24.9247126433       31.4207755019        7.4083843864  MEMB      57              0.0000000000
      8294        85  DOPC      H10R           25.1217120872       30.8174562955        6.5099429018  MEMB      57              0.0000000000
      8295        85  DOPC      C211           24.9009698302       32.9396300086        7.2025826198  MEMB      57              0.0000000000
      8296        85  DOPC      H11R           25.9244656313       33.2788446571        6.9347938645  MEMB      57              0.0000000000
      8297        85  DOPC      H11S           24.6118776504       33.4803163476        8.1290840130  MEMB      57              0.0000000000
      8298        85  DOPC      C212           24.0891681828       33.4061189871        5.9162085099  MEMB      57              0.0000000000
      8299        85  DOPC      H12R           22.9818897873       33.3305422483        5.9666448762  MEMB      57              0.0000000000
      8300        85  DOPC      H12S           24.4422705563       32.7154940263        5.1207985666  MEMB      57              0.0000000000
      8301        85  DOPC      C213           24.5742227121       34.7237022857        5.5147768113  MEMB      57              0.0000000000
      8302        85  DOPC      H13R           25.6784354876       34.7116914861        5.3927465116  MEMB      57              0.0000000000
      8303        85  DOPC      H13S           24.2429894168       35.3638547927        6.3602414285  MEMB      57              0.0000000000
      8304        85  DOPC      C214           23.9668573426       35.4690283796        4.3199405831  MEMB      57              0.0000000000
      8305        85  DOPC      H14R           23.9955833867       36.5470996430        4.5868827963  MEMB      57              0.0000000000
      8306        85  DOPC      H14S           22.8955365077       35.1947635524        4.2133025629  MEMB      57              0.0000000000
      8307        85  DOPC      C215           24.5079895450       35.1178243144        2.8725840300  MEMB      57              0.0000000000
      8308        85  DOPC      H15R           23.7197125670       34.5522391961        2.3312394938  MEMB      57              0.0000000000
      8309        85  DOPC      H15S           25.4958276572       34.6473492259        2.6798400352  MEMB      57              0.0000000000
      8310        85  DOPC      C216           24.7448989493       36.4222200061        2.0671651907  MEMB      57              0.0000000000
      8311        85  DOPC      H16R           25.4235023495       37.0881007961        2.6419873245  MEMB      57              0.0000000000
      8312        85  DOPC      H16S           23.7815627570       36.9731898709        2.0148533562  MEMB      57              0.0000000000
      8313        85  DOPC      C217           25.2082012034       36.2002057443        0.6105077224  MEMB      57              0.0000000000
      8314        85  DOPC      H17R           24.4214007363       35.5602267316        0.1569733890  MEMB      57              0.0000000000
      8315        85  DOPC      H17S           26.1419760629       35.5996891556        0.6525233818  MEMB      57              0.0000000000
      8316        85  DOPC      C218           25.5050614844       37.4427049550       -0.3079657087  MEMB      57              0.0000000000
      8317        85  DOPC      H18R           26.2024734417       37.0960495388       -1.1002833937  MEMB      57              0.0000000000
      8318        85  DOPC      H18S           25.8506885862       38.2987853719        0.3100874277  MEMB      57              0.0000000000
      8319        85  DOPC      H18T           24.6273353935       37.7964122985       -0.8900377825  MEMB      57              0.0000000000
      8320        85  DOPC      C33            20.9845705692       36.8979125245       12.7144838526  MEMB      57              0.0000000000
      8321        85  DOPC      H3X            21.6154821270       36.1244194266       13.2023154244  MEMB      57              0.0000000000
      8322        85  DOPC      H3Y            21.5970575816       37.7311078996       12.3083234346  MEMB      57              0.0000000000
      8323        85  DOPC      C34            20.2003537814       36.1100841638       11.6171260199  MEMB      57              0.0000000000
      8324        85  DOPC      H4X            19.2948771764       36.6641264084       11.2892993607  MEMB      57              0.0000000000
      8325        85  DOPC      H4Y            19.9018584176       35.1060770175       11.9875191418  MEMB      57              0.0000000000
      8326        85  DOPC      C35            21.0140843583       36.0287721994       10.3326962745  MEMB      57              0.0000000000
      8327        85  DOPC      H5X            21.9557391336       35.4534543134       10.4616006784  MEMB      57              0.0000000000
      8328        85  DOPC      H5Y            21.4076808744       37.0668729309       10.2908664230  MEMB      57              0.0000000000
      8329        85  DOPC      C36            20.2851306556       35.6067090725        9.0687186116  MEMB      57              0.0000000000
      8330        85  DOPC      H6X            19.8389708724       34.5905428863        9.1203784969  MEMB      57              0.0000000000
      8331        85  DOPC      H6Y            19.5046720520       36.3179246850        8.7232075075  MEMB      57              0.0000000000
      8332        85  DOPC      C37            21.2614409475       35.6873635108        7.9130399415  MEMB      57              0.0000000000
      8333        85  DOPC      H7X            21.5694322965       36.7185970074        7.6373221772  MEMB      57              0.0000000000
      8334        85  DOPC      H7Y            22.1329955976       35.0780930489        8.2347589976  MEMB      57              0.0000000000
      8335        85  DOPC      C38            20.7978829460       35.0522214459        6.6762947662  MEMB      57              0.0000000000
      8336        85  DOPC      H8X            20.6122736467       33.9771299011        6.8861723113  MEMB      57              0.0000000000
      8337        85  DOPC      H8Y            21.5048858517       35.0421631636        5.8193430871  MEMB      57              0.0000000000
      8338        85  DOPC      C39            19.4821559254       35.6553027522        6.2402194653  MEMB      57              0.0000000000
      8339        85  DOPC      H9X            18.6145621545       35.2866215355        6.8071015009  MEMB      57              0.0000000000
      8340        85  DOPC      C310           19.2333263647       36.5202454302        5.2563994468  MEMB      57              0.0000000000
      8341        85  DOPC      H10X           18.2200558736       36.9478357986        5.2775923206  MEMB      57              0.0000000000
      8342        85  DOPC      C311           20.1966174434       37.1909918359        4.2983691295  MEMB      57              0.0000000000
      8343        85  DOPC      H11X           21.2755764507       36.9475035374        4.4026867083  MEMB      57              0.0000000000
      8344        85  DOPC      H11Y           19.9945936329       38.2831288454        4.2710945726  MEMB      57              0.0000000000
      8345        85  DOPC      C312           19.9223809064       36.7195924093        2.8878536372  MEMB      57              0.0000000000
      8346        85  DOPC      H12X           20.5786232517       37.3542830540        2.2547388551  MEMB      57              0.0000000000
      8347        85  DOPC      H12Y           18.8785357342       36.8688551328        2.5379567741  MEMB      57              0.0000000000
      8348        85  DOPC      C313           20.3159470642       35.2594145228        2.6134852728  MEMB      57              0.0000000000
      8349        85  DOPC      H13X           21.1566571613       34.9291829865        3.2603828615  MEMB      57              0.0000000000
      8350        85  DOPC      H13Y           19.4232318478       34.6652277132        2.9038686953  MEMB      57              0.0000000000
      8351        85  DOPC      C314           20.8205163568       35.0059624310        1.2388355435  MEMB      57              0.0000000000
      8352        85  DOPC      H14X           20.1221247107       35.5126364938        0.5389421527  MEMB      57              0.0000000000
      8353        85  DOPC      H14Y           21.8440770739       35.2958536574        0.9185125589  MEMB      57              0.0000000000
      8354        85  DOPC      C315           20.5350383658       33.5477098305        0.6931211334  MEMB      57              0.0000000000
      8355        85  DOPC      H15X           20.8367762318       33.6657841691       -0.3695812682  MEMB      57              0.0000000000
      8356        85  DOPC      H15Y           19.4336498922       33.4118074257        0.7459885334  MEMB      57              0.0000000000
      8357        85  DOPC      C316           21.2964865027       32.4633703963        1.4530480266  MEMB      57              0.0000000000
      8358        85  DOPC      H16X           22.3403957051       32.8275149324        1.5624698002  MEMB      57              0.0000000000
      8359        85  DOPC      H16Y           20.8968063079       32.4050994165        2.4880261899  MEMB      57              0.0000000000
      8360        85  DOPC      C317           21.3475446338       31.0502386212        0.7931254057  MEMB      57              0.0000000000
      8361        85  DOPC      H17X           21.7545443602       31.2110817391       -0.2280506126  MEMB      57              0.0000000000
      8362        85  DOPC      H17Y           22.0853723738       30.4896018813        1.4060025009  MEMB      57              0.0000000000
      8363        85  DOPC      C318           19.9669104808       30.4706392220        0.6447478852  MEMB      57              0.0000000000
      8364        85  DOPC      H18X           19.2722220169       31.0000176555       -0.0419017874  MEMB      57              0.0000000000
      8365        85  DOPC      H18Y           20.0798571564       29.4206892348        0.2995393280  MEMB      57              0.0000000000
      8366        85  DOPC      H18Z           19.3845123585       30.5299304644        1.5890033601  MEMB      57              0.0000000000
      8367        86  DOPC      N              29.4416492929       25.2705492290       17.2258026966  MEMB      58              0.0000000000
      8368        86  DOPC      C12            29.2717682566       26.7173172014       17.1922601159  MEMB      58              0.0000000000
      8369        86  DOPC      H12A           28.6632651600       27.0370295853       16.3592488199  MEMB      58              0.0000000000
      8370        86  DOPC      H12B           30.2190031071       27.1704216097       16.9395893523  MEMB      58              0.0000000000
      8371        86  DOPC      C13            28.0612820944       24.6804530298       17.4995439985  MEMB      58              0.0000000000
      8372        86  DOPC      H13A           28.1753769504       23.6667872211       17.8543173558  MEMB      58              0.0000000000
      8373        86  DOPC      H13B           27.5881426916       25.1690145476       18.3384996621  MEMB      58              0.0000000000
      8374        86  DOPC      H13C           27.4894312384       24.7631399019       16.5871025475  MEMB      58              0.0000000000
      8375        86  DOPC      C14            30.4753529589       24.8488404691       18.2525634469  MEMB      58              0.0000000000
      8376        86  DOPC      H14A           31.3694541303       25.4378948965       18.1111498278  MEMB      58              0.0000000000
      8377        86  DOPC      H14B           30.0768103328       25.2511736237       19.1721785130  MEMB      58              0.0000000000
      8378        86  DOPC      H14C           30.4630511060       23.7691029192       18.2729518172  MEMB      58              0.0000000000
      8379        86  DOPC      C15            29.8432935551       24.6939294910       15.8736365420  MEMB      58              0.0000000000
      8380        86  DOPC      H15A           30.1967975953       23.6749540327       15.9295291042  MEMB      58              0.0000000000
      8381        86  DOPC      H15B           30.6317290501       25.2586042678       15.3983344657  MEMB      58              0.0000000000
      8382        86  DOPC      H15C           28.8810153316       24.6563238580       15.3847534664  MEMB      58              0.0000000000
      8383        86  DOPC      C11            28.6997284580       27.4020935510       18.5077528763  MEMB      58              0.0000000000
      8384        86  DOPC      H11A           28.7621912206       28.5049708641       18.3890895071  MEMB      58              0.0000000000
      8385        86  DOPC      H11B           27.6175726667       27.1735213155       18.6127035344  MEMB      58              0.0000000000
      8386        86  DOPC      P              29.5106396981       27.8523481936       20.9560441203  MEMB      58              0.0000000000
      8387        86  DOPC      O13            30.2693367700       27.0258192787       21.8745226786  MEMB      58              0.0000000000
      8388        86  DOPC      O14            28.2890541405       28.5406354748       21.3838195968  MEMB      58              0.0000000000
      8389        86  DOPC      O12            29.2153431849       26.9572484493       19.7119541175  MEMB      58              0.0000000000
      8390        86  DOPC      O11            30.4785755885       28.9972803317       20.5220998283  MEMB      58              0.0000000000
      8391        86  DOPC      C1             31.5927490267       28.7863984434       19.6992483337  MEMB      58              0.0000000000
      8392        86  DOPC      HA             31.5370734640       27.7877047774       19.2156862105  MEMB      58              0.0000000000
      8393        86  DOPC      HB             32.5231445517       28.7483448088       20.3052493132  MEMB      58              0.0000000000
      8394        86  DOPC      C2             31.7709465629       29.8885993478       18.6110340190  MEMB      58              0.0000000000
      8395        86  DOPC      HS             31.8023837656       30.8958405412       19.0787921179  MEMB      58              0.0000000000
      8396        86  DOPC      O21            30.6607841775       29.7505278789       17.7069750335  MEMB      58              0.0000000000
      8397        86  DOPC      C21            30.3314696528       30.9578375296       17.2184738523  MEMB      58              0.0000000000
      8398        86  DOPC      O22            30.9043773122       32.0282203829       17.3848680466  MEMB      58              0.0000000000
      8399        86  DOPC      C22            29.1533784543       30.7047310065       16.2959853277  MEMB      58              0.0000000000
      8400        86  DOPC      H2R            28.5360220933       31.6068483617       16.0975518499  MEMB      58              0.0000000000
      8401        86  DOPC      H2S            28.5166840396       29.9123628641       16.7444202082  MEMB      58              0.0000000000
      8402        86  DOPC      C3             33.0815750806       29.6158238577       17.8172431443  MEMB      58              0.0000000000
      8403        86  DOPC      HX             33.8829389075       29.6018392778       18.5866206572  MEMB      58              0.0000000000
      8404        86  DOPC      HY             33.2224984226       30.3869908596       17.0299929218  MEMB      58              0.0000000000
      8405        86  DOPC      O31            33.0805315483       28.2502732163       17.2999446091  MEMB      58              0.0000000000
      8406        86  DOPC      C31            34.0876330118       27.8858177831       16.5971395140  MEMB      58              0.0000000000
      8407        86  DOPC      O32            34.9881995887       28.5788006544       16.2643162819  MEMB      58              0.0000000000
      8408        86  DOPC      C32            34.0223105664       26.4150805610       16.1171812411  MEMB      58              0.0000000000
      8409        86  DOPC      H2X            35.0260290328       25.9560877293       16.2444446036  MEMB      58              0.0000000000
      8410        86  DOPC      H2Y            33.2667580781       25.8562893634       16.7098139145  MEMB      58              0.0000000000
      8411        86  DOPC      C23            29.6846756490       30.1838347251       14.9428140434  MEMB      58              0.0000000000
      8412        86  DOPC      H3R            28.8616990063       30.1103229239       14.2000985525  MEMB      58              0.0000000000
      8413        86  DOPC      H3S            29.9547231474       29.1096066881       15.0290089208  MEMB      58              0.0000000000
      8414        86  DOPC      C24            30.8780224809       30.8928292245       14.2290409255  MEMB      58              0.0000000000
      8415        86  DOPC      H4R            31.7128626397       30.6120733322       14.9061962519  MEMB      58              0.0000000000
      8416        86  DOPC      H4S            30.7612373363       31.9976652671       14.2334029617  MEMB      58              0.0000000000
      8417        86  DOPC      C25            31.1380966380       30.4652228643       12.7519170494  MEMB      58              0.0000000000
      8418        86  DOPC      H5R            31.2986425862       29.3661413600       12.7757124190  MEMB      58              0.0000000000
      8419        86  DOPC      H5S            32.1377837203       30.8316190408       12.4345826333  MEMB      58              0.0000000000
      8420        86  DOPC      C26            30.0530642242       30.7905127285       11.6722638174  MEMB      58              0.0000000000
      8421        86  DOPC      H6R            29.8068114867       31.8655608885       11.8062512943  MEMB      58              0.0000000000
      8422        86  DOPC      H6S            29.1527345407       30.1431360176       11.7403114327  MEMB      58              0.0000000000
      8423        86  DOPC      C27            30.5237466033       30.5553502293       10.2522459659  MEMB      58              0.0000000000
      8424        86  DOPC      H7R            30.8221209486       29.5157659086        9.9981626131  MEMB      58              0.0000000000
      8425        86  DOPC      H7S            31.4926957141       31.0762172780       10.0968242570  MEMB      58              0.0000000000
      8426        86  DOPC      C28            29.5837652363       31.2147020258        9.1916673035  MEMB      58              0.0000000000
      8427        86  DOPC      H8R            29.4761102688       32.2881161399        9.4572128553  MEMB      58              0.0000000000
      8428        86  DOPC      H8S            28.5340105139       30.8638202392        9.2876787237  MEMB      58              0.0000000000
      8429        86  DOPC      C29            30.1475956076       31.1821700341        7.7533388933  MEMB      58              0.0000000000
      8430        86  DOPC      H9R            30.6305030504       32.1122404632        7.4190201750  MEMB      58              0.0000000000
      8431        86  DOPC      C210           30.1313483811       30.0824134571        6.9937339055  MEMB      58              0.0000000000
      8432        86  DOPC      H10R           30.4809824189       30.2047050539        5.9579736898  MEMB      58              0.0000000000
      8433        86  DOPC      C211           29.6099613658       28.7254638781        7.3758565933  MEMB      58              0.0000000000
      8434        86  DOPC      H11R           29.8367494196       28.5235826252        8.4445629260  MEMB      58              0.0000000000
      8435        86  DOPC      H11S           30.1663372075       28.0202386779        6.7220803236  MEMB      58              0.0000000000
      8436        86  DOPC      C212           28.1489605106       28.3905142091        6.9641618371  MEMB      58              0.0000000000
      8437        86  DOPC      H12R           27.5042865429       28.9627228199        7.6650858302  MEMB      58              0.0000000000
      8438        86  DOPC      H12S           28.0013858751       27.3091458232        7.1719725273  MEMB      58              0.0000000000
      8439        86  DOPC      C213           27.7148290120       28.6434258679        5.4844210579  MEMB      58              0.0000000000
      8440        86  DOPC      H13R           27.9654726526       29.7008709747        5.2535343051  MEMB      58              0.0000000000
      8441        86  DOPC      H13S           26.6263520237       28.5116781196        5.3050312775  MEMB      58              0.0000000000
      8442        86  DOPC      C214           28.3082739313       27.7580930080        4.4316647395  MEMB      58              0.0000000000
      8443        86  DOPC      H14R           27.9472312415       26.7276697936        4.6370845673  MEMB      58              0.0000000000
      8444        86  DOPC      H14S           29.4175000023       27.7740805599        4.4923556433  MEMB      58              0.0000000000
      8445        86  DOPC      C215           27.9154650070       28.3830753943        3.0729589441  MEMB      58              0.0000000000
      8446        86  DOPC      H15R           28.0301045154       29.4878205023        3.0461807370  MEMB      58              0.0000000000
      8447        86  DOPC      H15S           26.8822813579       28.0476245760        2.8398801843  MEMB      58              0.0000000000
      8448        86  DOPC      C216           28.7004065399       27.7591169150        1.8222701487  MEMB      58              0.0000000000
      8449        86  DOPC      H16R           28.1828741864       26.8186459685        1.5359204741  MEMB      58              0.0000000000
      8450        86  DOPC      H16S           29.7231837307       27.5509031076        2.2029205719  MEMB      58              0.0000000000
      8451        86  DOPC      C217           28.8292805882       28.7571690919        0.6276775225  MEMB      58              0.0000000000
      8452        86  DOPC      H17R           27.8988261364       29.3396220647        0.4564332395  MEMB      58              0.0000000000
      8453        86  DOPC      H17S           28.7787609530       28.1171514379       -0.2790437397  MEMB      58              0.0000000000
      8454        86  DOPC      C218           29.9689722649       29.7261200937        0.4951622752  MEMB      58              0.0000000000
      8455        86  DOPC      H18R           30.0248680792       29.9205218451       -0.5972693921  MEMB      58              0.0000000000
      8456        86  DOPC      H18S           30.9660079199       29.4431169396        0.8953500736  MEMB      58              0.0000000000
      8457        86  DOPC      H18T           29.6618122622       30.6685602742        0.9969379390  MEMB      58              0.0000000000
      8458        86  DOPC      C33            33.7513407517       26.2502494537       14.5556793357  MEMB      58              0.0000000000
      8459        86  DOPC      H3X            34.4433648434       26.9484590836       14.0380627529  MEMB      58              0.0000000000
      8460        86  DOPC      H3Y            32.7500952321       26.6239519923       14.2520766591  MEMB      58              0.0000000000
      8461        86  DOPC      C34            33.9893991691       24.7638924508       14.1939940849  MEMB      58              0.0000000000
      8462        86  DOPC      H4X            33.3553399261       24.1647890757       14.8820093653  MEMB      58              0.0000000000
      8463        86  DOPC      H4Y            35.0704013193       24.5884796567       14.3810389616  MEMB      58              0.0000000000
      8464        86  DOPC      C35            33.6144585914       24.4724884516       12.7022249743  MEMB      58              0.0000000000
      8465        86  DOPC      H5X            33.8944644494       23.4386169200       12.4072211989  MEMB      58              0.0000000000
      8466        86  DOPC      H5Y            33.9850088408       25.2520269734       12.0027011319  MEMB      58              0.0000000000
      8467        86  DOPC      C36            32.0735650370       24.3556568576       12.6288648807  MEMB      58              0.0000000000
      8468        86  DOPC      H6X            31.7941539968       23.5563513277       13.3481432066  MEMB      58              0.0000000000
      8469        86  DOPC      H6Y            31.6154251130       25.2738436382       13.0547309414  MEMB      58              0.0000000000
      8470        86  DOPC      C37            31.4605316434       24.1166005847       11.3225785676  MEMB      58              0.0000000000
      8471        86  DOPC      H7X            30.3877765387       23.9808032992       11.5776798786  MEMB      58              0.0000000000
      8472        86  DOPC      H7Y            31.6425651470       25.0313898303       10.7189684236  MEMB      58              0.0000000000
      8473        86  DOPC      C38            32.0531816545       22.9767963975       10.5340549294  MEMB      58              0.0000000000
      8474        86  DOPC      H8X            32.0672949316       22.0157491494       11.0912898686  MEMB      58              0.0000000000
      8475        86  DOPC      H8Y            33.1502359631       23.1519622339       10.5445240519  MEMB      58              0.0000000000
      8476        86  DOPC      C39            31.5980538207       22.7538894566        9.1165781974  MEMB      58              0.0000000000
      8477        86  DOPC      H9X            30.6458806354       22.2032064920        9.1272613378  MEMB      58              0.0000000000
      8478        86  DOPC      C310           32.2381936994       23.0216308741        7.9492881577  MEMB      58              0.0000000000
      8479        86  DOPC      H10X           31.5773834969       23.1452922986        7.0786343162  MEMB      58              0.0000000000
      8480        86  DOPC      C311           33.6008669103       23.6318203202        7.8601795766  MEMB      58              0.0000000000
      8481        86  DOPC      H11X           33.8430338215       23.7458650220        6.7819077360  MEMB      58              0.0000000000
      8482        86  DOPC      H11Y           34.4116374336       22.9033347841        8.0753101359  MEMB      58              0.0000000000
      8483        86  DOPC      C312           33.8214053949       25.0242390608        8.4348625277  MEMB      58              0.0000000000
      8484        86  DOPC      H12X           34.8698358981       25.2208801817        8.7454214298  MEMB      58              0.0000000000
      8485        86  DOPC      H12Y           33.2415727270       25.0375225367        9.3824590058  MEMB      58              0.0000000000
      8486        86  DOPC      C313           33.3550152001       26.1575415675        7.5123165308  MEMB      58              0.0000000000
      8487        86  DOPC      H13X           32.4978509956       25.8147855123        6.8941673365  MEMB      58              0.0000000000
      8488        86  DOPC      H13Y           32.9542077550       26.9258271607        8.2075954607  MEMB      58              0.0000000000
      8489        86  DOPC      C314           34.3867458730       26.7693612448        6.5821286367  MEMB      58              0.0000000000
      8490        86  DOPC      H14X           33.8684854725       27.3962112207        5.8253025758  MEMB      58              0.0000000000
      8491        86  DOPC      H14Y           35.1903201481       27.3350946037        7.1003323016  MEMB      58              0.0000000000
      8492        86  DOPC      C315           35.0916397287       25.7438442772        5.6510119379  MEMB      58              0.0000000000
      8493        86  DOPC      H15X           34.3395123317       25.1900886290        5.0493644048  MEMB      58              0.0000000000
      8494        86  DOPC      H15Y           35.7442137048       25.0175196177        6.1810313329  MEMB      58              0.0000000000
      8495        86  DOPC      C316           36.0817184702       26.4425958094        4.6591629506  MEMB      58              0.0000000000
      8496        86  DOPC      H16X           35.7175307128       27.2590924018        3.9996023461  MEMB      58              0.0000000000
      8497        86  DOPC      H16Y           36.8711026978       26.8570661880        5.3220422430  MEMB      58              0.0000000000
      8498        86  DOPC      C317           36.5349221836       25.4222001443        3.6259179498  MEMB      58              0.0000000000
      8499        86  DOPC      H17X           37.4382506882       25.8342416198        3.1273798116  MEMB      58              0.0000000000
      8500        86  DOPC      H17Y           36.7000585357       24.4473273593        4.1325472020  MEMB      58              0.0000000000
      8501        86  DOPC      C318           35.5834601663       25.1623100286        2.4806945095  MEMB      58              0.0000000000
      8502        86  DOPC      H18X           35.8729360194       24.2911406529        1.8549249028  MEMB      58              0.0000000000
      8503        86  DOPC      H18Y           34.5335255877       24.8931558055        2.7246524064  MEMB      58              0.0000000000
      8504        86  DOPC      H18Z           35.5159064622       26.0812959689        1.8600323452  MEMB      58              0.0000000000
      8505        87  DOPC      N             -30.0394713145      -21.1749551430       21.1144330692  MEMB      59              0.0000000000
      8506        87  DOPC      C12           -29.0046721192      -20.4316236919       20.2005222706  MEMB      59              0.0000000000
      8507        87  DOPC      H12A          -28.2152911305      -21.1594326486       20.0840248602  MEMB      59              0.0000000000
      8508        87  DOPC      H12B          -28.7197045488      -19.6296251993       20.8653471003  MEMB      59              0.0000000000
      8509        87  DOPC      C13           -31.2387937162      -20.3008974708       21.3911475237  MEMB      59              0.0000000000
      8510        87  DOPC      H13A          -30.9494887791      -19.2612766426       21.3476579232  MEMB      59              0.0000000000
      8511        87  DOPC      H13B          -32.0426554584      -20.6185335111       20.7436031016  MEMB      59              0.0000000000
      8512        87  DOPC      H13C          -31.6235537659      -20.4714766229       22.3857641321  MEMB      59              0.0000000000
      8513        87  DOPC      C14           -29.4012950553      -21.3575976541       22.4221823464  MEMB      59              0.0000000000
      8514        87  DOPC      H14A          -29.9620533857      -22.0932650368       22.9796261037  MEMB      59              0.0000000000
      8515        87  DOPC      H14B          -28.4078359449      -21.7702032109       22.3262870373  MEMB      59              0.0000000000
      8516        87  DOPC      H14C          -29.3262324308      -20.4436683277       22.9927071904  MEMB      59              0.0000000000
      8517        87  DOPC      C15           -30.4636873901      -22.5525469200       20.5704862600  MEMB      59              0.0000000000
      8518        87  DOPC      H15A          -29.5791718169      -23.0167430733       20.1599327952  MEMB      59              0.0000000000
      8519        87  DOPC      H15B          -31.1558087532      -22.3238396201       19.7735790834  MEMB      59              0.0000000000
      8520        87  DOPC      H15C          -30.9955966437      -23.2167760090       21.2355218118  MEMB      59              0.0000000000
      8521        87  DOPC      C11           -29.4235443379      -19.9549637126       18.7852115142  MEMB      59              0.0000000000
      8522        87  DOPC      H11A          -29.8981208096      -18.9511488775       18.7470783000  MEMB      59              0.0000000000
      8523        87  DOPC      H11B          -28.4921527196      -19.8055635679       18.1982615329  MEMB      59              0.0000000000
      8524        87  DOPC      P             -29.7662693901      -21.7484900510       16.8499217639  MEMB      59              0.0000000000
      8525        87  DOPC      O13           -30.8663816026      -22.6231900377       16.4272388488  MEMB      59              0.0000000000
      8526        87  DOPC      O14           -28.4858859308      -22.3650510132       17.3047367310  MEMB      59              0.0000000000
      8527        87  DOPC      O12           -30.3046228763      -20.9313583204       18.1693140017  MEMB      59              0.0000000000
      8528        87  DOPC      O11           -29.4449976560      -20.6164855805       15.7648056251  MEMB      59              0.0000000000
      8529        87  DOPC      C1            -30.2560180088      -19.5831423654       15.3852867119  MEMB      59              0.0000000000
      8530        87  DOPC      HA            -30.4866456453      -18.8090192565       16.1480876505  MEMB      59              0.0000000000
      8531        87  DOPC      HB            -31.2613629937      -19.9945196972       15.1521105599  MEMB      59              0.0000000000
      8532        87  DOPC      C2            -29.8112443256      -19.0380438037       13.9745882766  MEMB      59              0.0000000000
      8533        87  DOPC      HS            -30.6736408793      -18.5485500930       13.4735998645  MEMB      59              0.0000000000
      8534        87  DOPC      O21           -29.3294441952      -20.1406559281       13.1772045787  MEMB      59              0.0000000000
      8535        87  DOPC      C21           -30.2192981632      -20.9711268209       12.5742424976  MEMB      59              0.0000000000
      8536        87  DOPC      O22           -31.4327432911      -20.9852850245       12.7222957276  MEMB      59              0.0000000000
      8537        87  DOPC      C22           -29.4082349540      -21.8307409046       11.6061353130  MEMB      59              0.0000000000
      8538        87  DOPC      H2R           -29.7225242552      -22.8610292683       11.8782544910  MEMB      59              0.0000000000
      8539        87  DOPC      H2S           -28.3398272150      -21.6633374076       11.8606976966  MEMB      59              0.0000000000
      8540        87  DOPC      C3            -28.6375935019      -18.0363044367       14.2653629858  MEMB      59              0.0000000000
      8541        87  DOPC      HX            -27.7390145620      -18.5029440302       14.7226638894  MEMB      59              0.0000000000
      8542        87  DOPC      HY            -29.0421315797      -17.2845211588       14.9763424437  MEMB      59              0.0000000000
      8543        87  DOPC      O31           -28.3592441586      -17.3081931875       13.0741627008  MEMB      59              0.0000000000
      8544        87  DOPC      C31           -27.5185625524      -17.7324131377       12.1349694505  MEMB      59              0.0000000000
      8545        87  DOPC      O32           -26.8627027062      -18.7069699155       12.1792498193  MEMB      59              0.0000000000
      8546        87  DOPC      C32           -27.4502954200      -16.6696503216       10.9293886402  MEMB      59              0.0000000000
      8547        87  DOPC      H2X           -28.5050430398      -16.3539445939       10.7805319672  MEMB      59              0.0000000000
      8548        87  DOPC      H2Y           -26.8706625498      -15.8338630605       11.3763864735  MEMB      59              0.0000000000
      8549        87  DOPC      C23           -29.8164650435      -21.4461575532       10.2097169578  MEMB      59              0.0000000000
      8550        87  DOPC      H3R           -29.6047280853      -20.3814472823        9.9733267225  MEMB      59              0.0000000000
      8551        87  DOPC      H3S           -30.9231505147      -21.5439298730       10.2066944583  MEMB      59              0.0000000000
      8552        87  DOPC      C24           -29.3249972044      -22.3236362691        9.0192636426  MEMB      59              0.0000000000
      8553        87  DOPC      H4R           -29.6519194810      -23.3437694998        9.3138332613  MEMB      59              0.0000000000
      8554        87  DOPC      H4S           -28.2159098051      -22.3653851597        9.0692945869  MEMB      59              0.0000000000
      8555        87  DOPC      C25           -29.8068686381      -21.9059190192        7.6323821058  MEMB      59              0.0000000000
      8556        87  DOPC      H5R           -29.1549844637      -22.2881639456        6.8179755954  MEMB      59              0.0000000000
      8557        87  DOPC      H5S           -29.7420041754      -20.7971548905        7.6598753941  MEMB      59              0.0000000000
      8558        87  DOPC      C26           -31.2576667993      -22.1559205889        7.4178339708  MEMB      59              0.0000000000
      8559        87  DOPC      H6R           -31.8601689890      -21.9041071616        8.3166674995  MEMB      59              0.0000000000
      8560        87  DOPC      H6S           -31.4541016676      -23.2463910013        7.3365422394  MEMB      59              0.0000000000
      8561        87  DOPC      C27           -31.9451995174      -21.5848265038        6.2280777906  MEMB      59              0.0000000000
      8562        87  DOPC      H7R           -33.0133372495      -21.8170302088        6.4267816321  MEMB      59              0.0000000000
      8563        87  DOPC      H7S           -31.6141243614      -22.1851815649        5.3538436914  MEMB      59              0.0000000000
      8564        87  DOPC      C28           -31.8346663756      -20.1010317261        5.8970012381  MEMB      59              0.0000000000
      8565        87  DOPC      H8R           -32.5056413193      -19.9203917436        5.0301196402  MEMB      59              0.0000000000
      8566        87  DOPC      H8S           -30.8469948928      -19.9172038546        5.4226241224  MEMB      59              0.0000000000
      8567        87  DOPC      C29           -32.0765885541      -19.2164785798        7.1176940607  MEMB      59              0.0000000000
      8568        87  DOPC      H9R           -33.1055292520      -19.4463320042        7.4314589003  MEMB      59              0.0000000000
      8569        87  DOPC      C210          -31.2549811364      -18.3098785419        7.7069864435  MEMB      59              0.0000000000
      8570        87  DOPC      H10R          -31.6224924136      -17.9201149614        8.6677261578  MEMB      59              0.0000000000
      8571        87  DOPC      C211          -29.8293243905      -17.9406821120        7.3116505574  MEMB      59              0.0000000000
      8572        87  DOPC      H11R          -29.6120145443      -18.5300439819        6.3952718652  MEMB      59              0.0000000000
      8573        87  DOPC      H11S          -29.0910244545      -18.2327756936        8.0887703503  MEMB      59              0.0000000000
      8574        87  DOPC      C212          -29.5578370197      -16.4373711385        7.0283163602  MEMB      59              0.0000000000
      8575        87  DOPC      H12R          -28.4695973253      -16.2735638742        6.8759272607  MEMB      59              0.0000000000
      8576        87  DOPC      H12S          -29.6559318126      -15.8395421674        7.9596057176  MEMB      59              0.0000000000
      8577        87  DOPC      C213          -30.3548629968      -15.8496731317        5.7996853262  MEMB      59              0.0000000000
      8578        87  DOPC      H13R          -29.6691468368      -14.9824286564        5.6901324804  MEMB      59              0.0000000000
      8579        87  DOPC      H13S          -31.3650286462      -15.4878556159        6.0877389671  MEMB      59              0.0000000000
      8580        87  DOPC      C214          -30.2718136188      -16.6568937600        4.5145825597  MEMB      59              0.0000000000
      8581        87  DOPC      H14R          -31.0564120840      -17.4410459831        4.5764819851  MEMB      59              0.0000000000
      8582        87  DOPC      H14S          -29.3150954346      -17.1966849517        4.3483407216  MEMB      59              0.0000000000
      8583        87  DOPC      C215          -30.5212697683      -15.7724943985        3.2389014674  MEMB      59              0.0000000000
      8584        87  DOPC      H15R          -29.8642456959      -14.8766217748        3.2316231677  MEMB      59              0.0000000000
      8585        87  DOPC      H15S          -31.5758505583      -15.4246189802        3.2730149732  MEMB      59              0.0000000000
      8586        87  DOPC      C216          -30.4163126592      -16.5713480046        1.9455854084  MEMB      59              0.0000000000
      8587        87  DOPC      H16R          -30.7089152041      -15.8514233125        1.1515995297  MEMB      59              0.0000000000
      8588        87  DOPC      H16S          -31.0948276213      -17.4453477099        1.8452708510  MEMB      59              0.0000000000
      8589        87  DOPC      C217          -28.9906297989      -17.1018895139        1.5783338356  MEMB      59              0.0000000000
      8590        87  DOPC      H17R          -28.6582889485      -17.8391842340        2.3400854837  MEMB      59              0.0000000000
      8591        87  DOPC      H17S          -28.1605349698      -16.4036259013        1.8185236587  MEMB      59              0.0000000000
      8592        87  DOPC      C218          -28.8284791472      -17.6643342617        0.2140539818  MEMB      59              0.0000000000
      8593        87  DOPC      H18R          -27.7607781086      -17.6998073549       -0.0910312638  MEMB      59              0.0000000000
      8594        87  DOPC      H18S          -29.5113778982      -17.1874270695       -0.5211543348  MEMB      59              0.0000000000
      8595        87  DOPC      H18T          -29.0825985126      -18.7419142316        0.3066042687  MEMB      59              0.0000000000
      8596        87  DOPC      C33           -26.7805324015      -17.0832548050        9.6357886385  MEMB      59              0.0000000000
      8597        87  DOPC      H3X           -27.2347223371      -16.4824852672        8.8190217189  MEMB      59              0.0000000000
      8598        87  DOPC      H3Y           -27.0364849506      -18.1456592704        9.4355229094  MEMB      59              0.0000000000
      8599        87  DOPC      C34           -25.2581177805      -16.8623054849        9.5958788873  MEMB      59              0.0000000000
      8600        87  DOPC      H4X           -24.7243471121      -17.4405655417       10.3801147038  MEMB      59              0.0000000000
      8601        87  DOPC      H4Y           -25.1099404273      -15.8344025825        9.9905689074  MEMB      59              0.0000000000
      8602        87  DOPC      C35           -24.6438884199      -17.1003009731        8.2278539596  MEMB      59              0.0000000000
      8603        87  DOPC      H5X           -23.5434720183      -17.1869614074        8.3539291231  MEMB      59              0.0000000000
      8604        87  DOPC      H5Y           -24.9140462825      -16.2450575129        7.5721909767  MEMB      59              0.0000000000
      8605        87  DOPC      C36           -25.1518958773      -18.3945243835        7.5578136606  MEMB      59              0.0000000000
      8606        87  DOPC      H6X           -24.9647348410      -19.2103083475        8.2884222947  MEMB      59              0.0000000000
      8607        87  DOPC      H6Y           -26.2299749055      -18.5159530648        7.3183947993  MEMB      59              0.0000000000
      8608        87  DOPC      C37           -24.3637722482      -18.6350949398        6.2334406963  MEMB      59              0.0000000000
      8609        87  DOPC      H7X           -24.3559461558      -17.6520070151        5.7159494577  MEMB      59              0.0000000000
      8610        87  DOPC      H7Y           -23.3126069841      -18.9022838375        6.4742360929  MEMB      59              0.0000000000
      8611        87  DOPC      C38           -25.0069632411      -19.6640664916        5.3627822701  MEMB      59              0.0000000000
      8612        87  DOPC      H8X           -24.5867144580      -19.4925453075        4.3487341929  MEMB      59              0.0000000000
      8613        87  DOPC      H8Y           -26.1054577035      -19.4989338827        5.3818079399  MEMB      59              0.0000000000
      8614        87  DOPC      C39           -24.7745686282      -21.1040670626        5.7125562230  MEMB      59              0.0000000000
      8615        87  DOPC      H9X           -25.2324586516      -21.2516431773        6.7017772919  MEMB      59              0.0000000000
      8616        87  DOPC      C310          -24.1350222296      -22.0360475059        5.0369735255  MEMB      59              0.0000000000
      8617        87  DOPC      H10X          -24.2350528198      -23.0952889413        5.3162606269  MEMB      59              0.0000000000
      8618        87  DOPC      C311          -23.4541678893      -21.8950089767        3.7193382030  MEMB      59              0.0000000000
      8619        87  DOPC      H11X          -22.3844894164      -22.1951838373        3.7173344802  MEMB      59              0.0000000000
      8620        87  DOPC      H11Y          -23.4802560019      -20.8991186596        3.2275632163  MEMB      59              0.0000000000
      8621        87  DOPC      C312          -24.0582181249      -22.8620357263        2.6161693680  MEMB      59              0.0000000000
      8622        87  DOPC      H12X          -24.0181987821      -23.9458495346        2.8571408089  MEMB      59              0.0000000000
      8623        87  DOPC      H12Y          -23.5213363381      -22.7012686178        1.6568811284  MEMB      59              0.0000000000
      8624        87  DOPC      C313          -25.5554767976      -22.6075247424        2.2441775237  MEMB      59              0.0000000000
      8625        87  DOPC      H13X          -26.0523249609      -22.5616669048        3.2368307718  MEMB      59              0.0000000000
      8626        87  DOPC      H13Y          -25.7106437961      -21.5779628417        1.8565613115  MEMB      59              0.0000000000
      8627        87  DOPC      C314          -26.1022156427      -23.7507459319        1.4303384352  MEMB      59              0.0000000000
      8628        87  DOPC      H14X          -25.7180388706      -23.6971306529        0.3892547792  MEMB      59              0.0000000000
      8629        87  DOPC      H14Y          -25.9326704131      -24.7567575010        1.8702415320  MEMB      59              0.0000000000
      8630        87  DOPC      C315          -27.6507946628      -23.7884270686        1.2036399323  MEMB      59              0.0000000000
      8631        87  DOPC      H15X          -28.0222216914      -23.9577418591        2.2369334038  MEMB      59              0.0000000000
      8632        87  DOPC      H15Y          -27.9387167793      -24.7096824740        0.6534494612  MEMB      59              0.0000000000
      8633        87  DOPC      C316          -28.3149409627      -22.5915027649        0.5504601022  MEMB      59              0.0000000000
      8634        87  DOPC      H16X          -29.2764749573      -23.0140720126        0.1882335883  MEMB      59              0.0000000000
      8635        87  DOPC      H16Y          -28.5142227426      -21.8409038720        1.3449471152  MEMB      59              0.0000000000
      8636        87  DOPC      C317          -27.5843610045      -22.1224527442       -0.7291591800  MEMB      59              0.0000000000
      8637        87  DOPC      H17X          -28.3038144303      -21.3616538987       -1.1004982490  MEMB      59              0.0000000000
      8638        87  DOPC      H17Y          -26.5707104700      -21.7112352868       -0.5349073252  MEMB      59              0.0000000000
      8639        87  DOPC      C318          -27.6644757411      -23.1768975023       -1.8907888778  MEMB      59              0.0000000000
      8640        87  DOPC      H18X          -28.7227466193      -23.5067224221       -1.9656143725  MEMB      59              0.0000000000
      8641        87  DOPC      H18Y          -27.2342018671      -22.7449589453       -2.8195606240  MEMB      59              0.0000000000
      8642        87  DOPC      H18Z          -27.1106701973      -24.0832008295       -1.5648528607  MEMB      59              0.0000000000
      8643        88  DOPC      N             -35.1628765044       20.1355495835       20.4073842119  MEMB      60              0.0000000000
      8644        88  DOPC      C12           -33.7030142278       20.0081888674       20.0642122346  MEMB      60              0.0000000000
      8645        88  DOPC      H12A          -33.3394423448       19.1077398956       20.5368718322  MEMB      60              0.0000000000
      8646        88  DOPC      H12B          -33.1498629381       20.8116682583       20.5277254328  MEMB      60              0.0000000000
      8647        88  DOPC      C13           -35.8875575448       18.9801081186       19.8151515606  MEMB      60              0.0000000000
      8648        88  DOPC      H13A          -35.7943263694       18.9689681327       18.7392408280  MEMB      60              0.0000000000
      8649        88  DOPC      H13B          -35.4564939548       18.0586733134       20.1778390009  MEMB      60              0.0000000000
      8650        88  DOPC      H13C          -36.9363420198       18.8350403087       20.0282393677  MEMB      60              0.0000000000
      8651        88  DOPC      C14           -35.6898283740       21.3156383487       19.9089109354  MEMB      60              0.0000000000
      8652        88  DOPC      H14A          -35.0693445484       22.1499892499       20.2009013635  MEMB      60              0.0000000000
      8653        88  DOPC      H14B          -35.6552716661       21.3434111584       18.8298213137  MEMB      60              0.0000000000
      8654        88  DOPC      H14C          -36.7396660095       21.4698233095       20.1100772970  MEMB      60              0.0000000000
      8655        88  DOPC      C15           -35.3839186507       20.1402198196       21.9512441640  MEMB      60              0.0000000000
      8656        88  DOPC      H15A          -35.0351282197       21.0418072915       22.4327888210  MEMB      60              0.0000000000
      8657        88  DOPC      H15B          -35.0231520502       19.3078767656       22.5372923982  MEMB      60              0.0000000000
      8658        88  DOPC      H15C          -36.4572541493       20.1206704782       22.0694336267  MEMB      60              0.0000000000
      8659        88  DOPC      C11           -33.2050595736       19.9503880241       18.5621870098  MEMB      60              0.0000000000
      8660        88  DOPC      H11A          -32.0961348661       19.8973828416       18.6045844837  MEMB      60              0.0000000000
      8661        88  DOPC      H11B          -33.6265936031       18.9742080984       18.2401577592  MEMB      60              0.0000000000
      8662        88  DOPC      P             -32.6938611922       22.2949209087       17.6893658513  MEMB      60              0.0000000000
      8663        88  DOPC      O13           -31.4192862973       21.8285763519       17.0751841537  MEMB      60              0.0000000000
      8664        88  DOPC      O14           -32.5249718866       22.9394374686       19.0103970183  MEMB      60              0.0000000000
      8665        88  DOPC      O12           -33.7581419593       21.1244408959       17.8525895612  MEMB      60              0.0000000000
      8666        88  DOPC      O11           -33.4742503064       23.3076677689       16.6633732969  MEMB      60              0.0000000000
      8667        88  DOPC      C1            -34.8373223216       23.6810089106       16.7999515873  MEMB      60              0.0000000000
      8668        88  DOPC      HA            -34.9136590502       24.7882225172       16.8506663765  MEMB      60              0.0000000000
      8669        88  DOPC      HB            -35.2282785265       23.1874878717       17.7153265341  MEMB      60              0.0000000000
      8670        88  DOPC      C2            -35.6730992511       23.1955208844       15.4901818922  MEMB      60              0.0000000000
      8671        88  DOPC      HS            -36.7020223029       22.9921309309       15.8566116026  MEMB      60              0.0000000000
      8672        88  DOPC      O21           -34.9699613652       22.0518153452       14.9984784363  MEMB      60              0.0000000000
      8673        88  DOPC      C21           -35.6976004462       20.9855511397       14.7844485180  MEMB      60              0.0000000000
      8674        88  DOPC      O22           -36.9304350492       20.9358190208       14.8699883104  MEMB      60              0.0000000000
      8675        88  DOPC      C22           -34.7685826325       19.7741332477       14.5381965306  MEMB      60              0.0000000000
      8676        88  DOPC      H2R           -35.3142903215       19.0125485012       15.1352836081  MEMB      60              0.0000000000
      8677        88  DOPC      H2S           -33.7040323064       19.8530394375       14.8461371603  MEMB      60              0.0000000000
      8678        88  DOPC      C3            -35.8171987229       24.2852744993       14.3981297002  MEMB      60              0.0000000000
      8679        88  DOPC      HX            -36.2129989321       25.2333907376       14.8209046634  MEMB      60              0.0000000000
      8680        88  DOPC      HY            -36.4926100755       23.8671154428       13.6214163865  MEMB      60              0.0000000000
      8681        88  DOPC      O31           -34.4644911412       24.4939333128       13.8806819826  MEMB      60              0.0000000000
      8682        88  DOPC      C31           -34.1854953066       24.4650059744       12.6411330876  MEMB      60              0.0000000000
      8683        88  DOPC      O32           -34.9242448593       24.0739263241       11.7102358019  MEMB      60              0.0000000000
      8684        88  DOPC      C32           -32.7073181501       24.8172687353       12.5355087505  MEMB      60              0.0000000000
      8685        88  DOPC      H2X           -32.4457847181       25.6880457085       13.1739980505  MEMB      60              0.0000000000
      8686        88  DOPC      H2Y           -32.0689410087       24.0062659482       12.9466903590  MEMB      60              0.0000000000
      8687        88  DOPC      C23           -34.9492948849       19.4296041736       13.0392502747  MEMB      60              0.0000000000
      8688        88  DOPC      H3R           -35.9469790855       19.7626760475       12.6814647098  MEMB      60              0.0000000000
      8689        88  DOPC      H3S           -34.7971367537       18.3292685453       13.0184974547  MEMB      60              0.0000000000
      8690        88  DOPC      C24           -33.8301682023       20.0970111953       12.1290886119  MEMB      60              0.0000000000
      8691        88  DOPC      H4R           -32.8581281856       19.9345987333       12.6420034597  MEMB      60              0.0000000000
      8692        88  DOPC      H4S           -33.9204175578       21.1924141866       12.2911634323  MEMB      60              0.0000000000
      8693        88  DOPC      C25           -33.7149739458       19.5638527184       10.7041223329  MEMB      60              0.0000000000
      8694        88  DOPC      H5R           -34.7336890495       19.2276655098       10.4151264413  MEMB      60              0.0000000000
      8695        88  DOPC      H5S           -33.0922448694       18.6442990019       10.7349571374  MEMB      60              0.0000000000
      8696        88  DOPC      C26           -33.2370147004       20.4461625323        9.5563813549  MEMB      60              0.0000000000
      8697        88  DOPC      H6R           -32.2400245095       20.8906541208        9.7631635607  MEMB      60              0.0000000000
      8698        88  DOPC      H6S           -33.8804419129       21.3432053631        9.4313348069  MEMB      60              0.0000000000
      8699        88  DOPC      C27           -33.1615883411       19.7709241397        8.0843134268  MEMB      60              0.0000000000
      8700        88  DOPC      H7R           -32.4736550858       18.8986152902        8.0722297976  MEMB      60              0.0000000000
      8701        88  DOPC      H7S           -32.7634570689       20.5486393963        7.3980399100  MEMB      60              0.0000000000
      8702        88  DOPC      C28           -34.5214636618       19.2761486008        7.5684896172  MEMB      60              0.0000000000
      8703        88  DOPC      H8R           -34.9025507968       18.6151570812        8.3760689624  MEMB      60              0.0000000000
      8704        88  DOPC      H8S           -34.3754539406       18.6000451010        6.6990726430  MEMB      60              0.0000000000
      8705        88  DOPC      C29           -35.3928392035       20.4889990281        7.2557098715  MEMB      60              0.0000000000
      8706        88  DOPC      H9R           -35.4518039109       21.4059447098        7.8604697124  MEMB      60              0.0000000000
      8707        88  DOPC      C210          -36.1821117238       20.4871600952        6.1493766707  MEMB      60              0.0000000000
      8708        88  DOPC      H10R          -36.6034810496       21.4646616433        5.8719984549  MEMB      60              0.0000000000
      8709        88  DOPC      C211          -36.3059235998       19.3555946251        5.1164775952  MEMB      60              0.0000000000
      8710        88  DOPC      H11R          -37.3652926732       19.1278631107        4.8711264174  MEMB      60              0.0000000000
      8711        88  DOPC      H11S          -35.9642217811       18.4036160778        5.5761490497  MEMB      60              0.0000000000
      8712        88  DOPC      C212          -35.4401608941       19.6112355180        3.8577482553  MEMB      60              0.0000000000
      8713        88  DOPC      H12R          -35.5859013948       18.7172906308        3.2143645655  MEMB      60              0.0000000000
      8714        88  DOPC      H12S          -34.3961176555       19.7373204781        4.2160737245  MEMB      60              0.0000000000
      8715        88  DOPC      C213          -35.9102623565       20.8249879075        3.0210788652  MEMB      60              0.0000000000
      8716        88  DOPC      H13R          -36.9983281023       20.9586854953        3.2015195246  MEMB      60              0.0000000000
      8717        88  DOPC      H13S          -36.0726061370       20.5400309363        1.9595877095  MEMB      60              0.0000000000
      8718        88  DOPC      C214          -35.0768618397       22.1829575434        3.1526848134  MEMB      60              0.0000000000
      8719        88  DOPC      H14R          -33.9931498028       21.9882682253        3.3009594392  MEMB      60              0.0000000000
      8720        88  DOPC      H14S          -35.3684218066       22.6473737275        4.1189310334  MEMB      60              0.0000000000
      8721        88  DOPC      C215          -35.3060994832       23.1771868826        1.9825581846  MEMB      60              0.0000000000
      8722        88  DOPC      H15R          -35.0442216558       22.7190145324        1.0048973229  MEMB      60              0.0000000000
      8723        88  DOPC      H15S          -34.7683023053       24.1291605109        2.1796398371  MEMB      60              0.0000000000
      8724        88  DOPC      C216          -36.7207717455       23.5504207586        1.8500000313  MEMB      60              0.0000000000
      8725        88  DOPC      H16R          -36.9652432060       23.9055497947        2.8739333327  MEMB      60              0.0000000000
      8726        88  DOPC      H16S          -37.3871324789       22.6642206737        1.7797592897  MEMB      60              0.0000000000
      8727        88  DOPC      C217          -37.1411216334       24.5332112992        0.7463814737  MEMB      60              0.0000000000
      8728        88  DOPC      H17R          -38.1742140511       24.9207443616        0.8762260836  MEMB      60              0.0000000000
      8729        88  DOPC      H17S          -37.2490779500       23.8413501429       -0.1161687835  MEMB      60              0.0000000000
      8730        88  DOPC      C218          -36.0810176360       25.6262008475        0.4674232238  MEMB      60              0.0000000000
      8731        88  DOPC      H18R          -36.0742245314       26.2883937009        1.3594861480  MEMB      60              0.0000000000
      8732        88  DOPC      H18S          -36.5011971253       26.2055351239       -0.3823660779  MEMB      60              0.0000000000
      8733        88  DOPC      H18T          -35.0882811547       25.1740321518        0.2568551727  MEMB      60              0.0000000000
      8734        88  DOPC      C33           -32.2093623378       24.8842587324       11.0780125587  MEMB      60              0.0000000000
      8735        88  DOPC      H3X           -32.8118325071       25.4981871786       10.3748462641  MEMB      60              0.0000000000
      8736        88  DOPC      H3Y           -32.2115507590       23.8311044205       10.7242016558  MEMB      60              0.0000000000
      8737        88  DOPC      C34           -30.7514745664       25.3638418835       11.0078205718  MEMB      60              0.0000000000
      8738        88  DOPC      H4X           -30.0655808283       24.6239804209       11.4730899855  MEMB      60              0.0000000000
      8739        88  DOPC      H4Y           -30.6431512442       26.3064088717       11.5858815030  MEMB      60              0.0000000000
      8740        88  DOPC      C35           -30.2069465301       25.4446569398        9.5576304620  MEMB      60              0.0000000000
      8741        88  DOPC      H5X           -29.3727483418       26.1780667206        9.5342802085  MEMB      60              0.0000000000
      8742        88  DOPC      H5Y           -31.0089360394       25.9455434493        8.9743236444  MEMB      60              0.0000000000
      8743        88  DOPC      C36           -29.9316391562       24.0618145555        8.9593258870  MEMB      60              0.0000000000
      8744        88  DOPC      H6X           -29.0562164123       23.5392665078        9.4008004636  MEMB      60              0.0000000000
      8745        88  DOPC      H6Y           -30.8596972221       23.4600146143        9.0635667368  MEMB      60              0.0000000000
      8746        88  DOPC      C37           -29.5670962638       24.2196886977        7.5033781033  MEMB      60              0.0000000000
      8747        88  DOPC      H7X           -28.8426374492       25.0558206291        7.4015712504  MEMB      60              0.0000000000
      8748        88  DOPC      H7Y           -29.0621689962       23.2925489232        7.1572837500  MEMB      60              0.0000000000
      8749        88  DOPC      C38           -30.7384873250       24.6966463901        6.5956312009  MEMB      60              0.0000000000
      8750        88  DOPC      H8X           -30.2767226980       25.0155247117        5.6367718787  MEMB      60              0.0000000000
      8751        88  DOPC      H8Y           -31.2489856997       25.5644561600        7.0653325648  MEMB      60              0.0000000000
      8752        88  DOPC      C39           -31.7778518310       23.6127462564        6.3166770478  MEMB      60              0.0000000000
      8753        88  DOPC      H9X           -32.5027872415       23.5706309915        7.1429308370  MEMB      60              0.0000000000
      8754        88  DOPC      C310          -31.8717501777       22.6115912928        5.4319426172  MEMB      60              0.0000000000
      8755        88  DOPC      H10X          -32.7716201756       21.9796403239        5.4614691281  MEMB      60              0.0000000000
      8756        88  DOPC      C311          -30.8376723434       22.2986132748        4.3371427470  MEMB      60              0.0000000000
      8757        88  DOPC      H11X          -30.8110471224       21.2002140670        4.1724270803  MEMB      60              0.0000000000
      8758        88  DOPC      H11Y          -29.8115651689       22.6082003905        4.6296860106  MEMB      60              0.0000000000
      8759        88  DOPC      C312          -31.0646226853       22.8420609913        2.9409856899  MEMB      60              0.0000000000
      8760        88  DOPC      H12X          -31.8082195238       22.2150856757        2.4040611581  MEMB      60              0.0000000000
      8761        88  DOPC      H12Y          -30.1093613453       22.6764104755        2.3984385698  MEMB      60              0.0000000000
      8762        88  DOPC      C313          -31.3343166762       24.3847630684        2.8917385087  MEMB      60              0.0000000000
      8763        88  DOPC      H13X          -32.1722358683       24.4810031013        3.6148911663  MEMB      60              0.0000000000
      8764        88  DOPC      H13Y          -30.3634728692       24.8195766962        3.2122390966  MEMB      60              0.0000000000
      8765        88  DOPC      C314          -31.7443184478       24.9313302859        1.5596614157  MEMB      60              0.0000000000
      8766        88  DOPC      H14X          -32.5613658778       24.3285618132        1.1086350744  MEMB      60              0.0000000000
      8767        88  DOPC      H14Y          -32.0097556900       26.0095079086        1.5970395284  MEMB      60              0.0000000000
      8768        88  DOPC      C315          -30.5690865445       24.9674960930        0.5841271977  MEMB      60              0.0000000000
      8769        88  DOPC      H15X          -30.2981759786       23.9588352483        0.2052706344  MEMB      60              0.0000000000
      8770        88  DOPC      H15Y          -29.6134869829       25.4080905926        0.9405335066  MEMB      60              0.0000000000
      8771        88  DOPC      C316          -30.9035031595       25.8601645522       -0.6359966114  MEMB      60              0.0000000000
      8772        88  DOPC      H16X          -31.0869970709       26.8864770958       -0.2521566977  MEMB      60              0.0000000000
      8773        88  DOPC      H16Y          -29.9631014293       26.0725341796       -1.1881430759  MEMB      60              0.0000000000
      8774        88  DOPC      C317          -32.0392119845       25.5033139278       -1.5860043014  MEMB      60              0.0000000000
      8775        88  DOPC      H17X          -32.0731606394       24.3962139137       -1.6725950769  MEMB      60              0.0000000000
      8776        88  DOPC      H17Y          -32.9484313851       25.9725976929       -1.1530905781  MEMB      60              0.0000000000
      8777        88  DOPC      C318          -31.8065179546       26.0220202741       -2.9769605188  MEMB      60              0.0000000000
      8778        88  DOPC      H18X          -31.6658955075       27.1131581675       -3.1317654889  MEMB      60              0.0000000000
      8779        88  DOPC      H18Y          -30.9320101230       25.5678696104       -3.4900933170  MEMB      60              0.0000000000
      8780        88  DOPC      H18Z          -32.6206711807       25.8067714207       -3.7016291554  MEMB      60              0.0000000000
      8781        89  DOPC      N              30.4559775570      -15.6922165158       19.4589421017  MEMB      61              0.0000000000
      8782        89  DOPC      C12            31.5272827412      -16.6653486559       19.9301335035  MEMB      61              0.0000000000
      8783        89  DOPC      H12A           31.5948419862      -17.4295710271       19.1700019601  MEMB      61              0.0000000000
      8784        89  DOPC      H12B           31.2021273633      -16.9774354793       20.9115995758  MEMB      61              0.0000000000
      8785        89  DOPC      C13            29.2504965463      -16.4986877480       19.1443890709  MEMB      61              0.0000000000
      8786        89  DOPC      H13A           28.4440192100      -15.8415958091       18.8541743854  MEMB      61              0.0000000000
      8787        89  DOPC      H13B           29.4602033669      -17.2660729590       18.4139486552  MEMB      61              0.0000000000
      8788        89  DOPC      H13C           28.8854121794      -17.1781919672       19.9002907976  MEMB      61              0.0000000000
      8789        89  DOPC      C14            30.9153946897      -14.8313816892       18.3336927963  MEMB      61              0.0000000000
      8790        89  DOPC      H14A           30.3040013840      -13.9930026963       18.0341618418  MEMB      61              0.0000000000
      8791        89  DOPC      H14B           31.8738854815      -14.4299905710       18.6279383105  MEMB      61              0.0000000000
      8792        89  DOPC      H14C           30.8310697345      -15.4712842259       17.4677747508  MEMB      61              0.0000000000
      8793        89  DOPC      C15            30.0502291600      -14.7321905142       20.5700122424  MEMB      61              0.0000000000
      8794        89  DOPC      H15A           29.7070061373      -15.2741357180       21.4388582083  MEMB      61              0.0000000000
      8795        89  DOPC      H15B           29.3027109811      -14.0507528721       20.1915163868  MEMB      61              0.0000000000
      8796        89  DOPC      H15C           30.9098103201      -14.1692019649       20.9025245495  MEMB      61              0.0000000000
      8797        89  DOPC      C11            32.9648204097      -16.2696837870       20.2234604343  MEMB      61              0.0000000000
      8798        89  DOPC      H11A           32.8565882218      -15.6596659241       21.1456779732  MEMB      61              0.0000000000
      8799        89  DOPC      H11B           33.4866978760      -17.2313094129       20.4164397675  MEMB      61              0.0000000000
      8800        89  DOPC      P              34.5712071697      -16.0277963872       18.2387577242  MEMB      61              0.0000000000
      8801        89  DOPC      O13            35.6162174622      -16.7734963157       18.9297263516  MEMB      61              0.0000000000
      8802        89  DOPC      O14            35.1057863091      -14.8750649163       17.5298933097  MEMB      61              0.0000000000
      8803        89  DOPC      O12            33.5376408042      -15.4912317943       19.2880302251  MEMB      61              0.0000000000
      8804        89  DOPC      O11            33.5814356317      -16.9597263011       17.3529622445  MEMB      61              0.0000000000
      8805        89  DOPC      C1             34.0770676195      -17.5026744915       16.1540648650  MEMB      61              0.0000000000
      8806        89  DOPC      HA             33.8402107075      -18.5835827231       16.0547807283  MEMB      61              0.0000000000
      8807        89  DOPC      HB             35.1802047076      -17.3902747705       16.0849555470  MEMB      61              0.0000000000
      8808        89  DOPC      C2             33.5195444235      -16.7527600903       14.8408553467  MEMB      61              0.0000000000
      8809        89  DOPC      HS             33.8980886946      -15.7082460422       14.8448031505  MEMB      61              0.0000000000
      8810        89  DOPC      O21            32.0682133525      -16.6687816297       14.9365858226  MEMB      61              0.0000000000
      8811        89  DOPC      C21            31.4566390476      -15.7614654094       14.0298329929  MEMB      61              0.0000000000
      8812        89  DOPC      O22            32.0039536875      -15.1204659900       13.2285892152  MEMB      61              0.0000000000
      8813        89  DOPC      C22            29.9252312097      -15.9232348672       14.1658002237  MEMB      61              0.0000000000
      8814        89  DOPC      H2R            29.6204723174      -15.3868085398       15.0897534749  MEMB      61              0.0000000000
      8815        89  DOPC      H2S            29.7135805311      -17.0119639529       14.2305613676  MEMB      61              0.0000000000
      8816        89  DOPC      C3             33.9452397603      -17.5146897236       13.5665926834  MEMB      61              0.0000000000
      8817        89  DOPC      HX             35.0559657827      -17.5388553082       13.5715574541  MEMB      61              0.0000000000
      8818        89  DOPC      HY             33.6072962936      -16.9189432398       12.6918348706  MEMB      61              0.0000000000
      8819        89  DOPC      O31            33.3812490495      -18.7833545963       13.4725160098  MEMB      61              0.0000000000
      8820        89  DOPC      C31            33.6072231636      -19.3340400475       12.2424401458  MEMB      61              0.0000000000
      8821        89  DOPC      O32            34.1597758991      -18.7893878185       11.3040545615  MEMB      61              0.0000000000
      8822        89  DOPC      C32            33.2792732383      -20.7940310407       12.3580140939  MEMB      61              0.0000000000
      8823        89  DOPC      H2X            34.0683085180      -21.3167874368       12.9397959474  MEMB      61              0.0000000000
      8824        89  DOPC      H2Y            32.3641988990      -20.9075577154       12.9777494242  MEMB      61              0.0000000000
      8825        89  DOPC      C23            29.2143621414      -15.2998572212       12.9724542662  MEMB      61              0.0000000000
      8826        89  DOPC      H3R            28.1490813898      -15.6116406198       12.9246096763  MEMB      61              0.0000000000
      8827        89  DOPC      H3S            29.6723342678      -15.7200229864       12.0515618736  MEMB      61              0.0000000000
      8828        89  DOPC      C24            29.0779089376      -13.7725921420       13.1557105206  MEMB      61              0.0000000000
      8829        89  DOPC      H4R            29.9773204598      -13.2211574370       13.5039914299  MEMB      61              0.0000000000
      8830        89  DOPC      H4S            28.2366938297      -13.5636330507       13.8507027831  MEMB      61              0.0000000000
      8831        89  DOPC      C25            28.6279987734      -12.9993314181       11.8699397492  MEMB      61              0.0000000000
      8832        89  DOPC      H5R            28.2510060455      -12.0048226308       12.1911089609  MEMB      61              0.0000000000
      8833        89  DOPC      H5S            27.8122631391      -13.5677849133       11.3742010382  MEMB      61              0.0000000000
      8834        89  DOPC      C26            29.8208186744      -12.9500448834       10.8972592315  MEMB      61              0.0000000000
      8835        89  DOPC      H6R            30.7550606675      -13.0560565407       11.4890985501  MEMB      61              0.0000000000
      8836        89  DOPC      H6S            29.8713604524      -11.9107174649       10.5079457308  MEMB      61              0.0000000000
      8837        89  DOPC      C27            29.7937475945      -13.7824982014        9.6060211782  MEMB      61              0.0000000000
      8838        89  DOPC      H7R            29.2057521587      -13.2138135524        8.8542370398  MEMB      61              0.0000000000
      8839        89  DOPC      H7S            29.2944739595      -14.7582651709        9.7874758996  MEMB      61              0.0000000000
      8840        89  DOPC      C28            31.2247505544      -13.9823393274        9.0924607936  MEMB      61              0.0000000000
      8841        89  DOPC      H8R            31.7292787434      -14.5204302722        9.9232619204  MEMB      61              0.0000000000
      8842        89  DOPC      H8S            31.6091668848      -12.9417041973        9.1526557977  MEMB      61              0.0000000000
      8843        89  DOPC      C29            31.5205736042      -14.5815011766        7.7434799028  MEMB      61              0.0000000000
      8844        89  DOPC      H9R            30.8445006556      -14.0687730144        7.0434546221  MEMB      61              0.0000000000
      8845        89  DOPC      C210           32.4196539866      -15.5067261301        7.4273437855  MEMB      61              0.0000000000
      8846        89  DOPC      H10R           32.4258235634      -15.7439867033        6.3532534365  MEMB      61              0.0000000000
      8847        89  DOPC      C211           33.4785134255      -16.1831485138        8.3371249469  MEMB      61              0.0000000000
      8848        89  DOPC      H11R           33.3504858394      -15.9394955515        9.4134909218  MEMB      61              0.0000000000
      8849        89  DOPC      H11S           34.4844930003      -15.8122952426        8.0459308944  MEMB      61              0.0000000000
      8850        89  DOPC      C212           33.3403853587      -17.6774190368        8.1749642470  MEMB      61              0.0000000000
      8851        89  DOPC      H12R           32.2841869427      -18.0076521266        8.2735142221  MEMB      61              0.0000000000
      8852        89  DOPC      H12S           33.8409525892      -18.1587399117        9.0421917552  MEMB      61              0.0000000000
      8853        89  DOPC      C213           33.9679288230      -18.2984862732        6.9654561122  MEMB      61              0.0000000000
      8854        89  DOPC      H13R           35.0584357648      -18.0942649551        6.9070678479  MEMB      61              0.0000000000
      8855        89  DOPC      H13S           33.5154247201      -17.8592095249        6.0507998228  MEMB      61              0.0000000000
      8856        89  DOPC      C214           33.7460293481      -19.8685835701        7.0931263669  MEMB      61              0.0000000000
      8857        89  DOPC      H14R           32.6468838149      -20.0233035656        7.0455662277  MEMB      61              0.0000000000
      8858        89  DOPC      H14S           34.0808907736      -20.1289664979        8.1199604699  MEMB      61              0.0000000000
      8859        89  DOPC      C215           34.4763375569      -20.7285407849        6.0797032811  MEMB      61              0.0000000000
      8860        89  DOPC      H15R           34.0625755739      -21.7469042141        6.2411274849  MEMB      61              0.0000000000
      8861        89  DOPC      H15S           35.5531619775      -20.5880128242        6.3142722096  MEMB      61              0.0000000000
      8862        89  DOPC      C216           34.2644745894      -20.2067750057        4.6281180430  MEMB      61              0.0000000000
      8863        89  DOPC      H16R           34.6621468378      -19.1819194852        4.4673418840  MEMB      61              0.0000000000
      8864        89  DOPC      H16S           33.1659133325      -20.0473367147        4.5826972164  MEMB      61              0.0000000000
      8865        89  DOPC      C217           34.8538940054      -21.0967940208        3.5727697797  MEMB      61              0.0000000000
      8866        89  DOPC      H17R           34.5995138023      -22.1562483323        3.7899527342  MEMB      61              0.0000000000
      8867        89  DOPC      H17S           35.9625248403      -21.0376058760        3.5308722099  MEMB      61              0.0000000000
      8868        89  DOPC      C218           34.3610065173      -20.6939425561        2.1631443510  MEMB      61              0.0000000000
      8869        89  DOPC      H18R           34.5990354239      -21.5686928212        1.5209004830  MEMB      61              0.0000000000
      8870        89  DOPC      H18S           34.8477216762      -19.7541364586        1.8252183676  MEMB      61              0.0000000000
      8871        89  DOPC      H18T           33.2725662499      -20.4739930976        2.1983712922  MEMB      61              0.0000000000
      8872        89  DOPC      C33            33.1261452517      -21.3773555141       10.9473081932  MEMB      61              0.0000000000
      8873        89  DOPC      H3X            33.2375624254      -22.4651740057       11.1436709184  MEMB      61              0.0000000000
      8874        89  DOPC      H3Y            33.9673009273      -20.9960474600       10.3297471646  MEMB      61              0.0000000000
      8875        89  DOPC      C34            31.8643594036      -21.1051969395       10.1463528633  MEMB      61              0.0000000000
      8876        89  DOPC      H4X            31.6056392431      -21.8371838829        9.3516323827  MEMB      61              0.0000000000
      8877        89  DOPC      H4Y            32.0335088437      -20.1345408129        9.6329950167  MEMB      61              0.0000000000
      8878        89  DOPC      C35            30.5008324295      -20.9163559160       10.9325043966  MEMB      61              0.0000000000
      8879        89  DOPC      H5X            30.6463323698      -20.3361153967       11.8687050708  MEMB      61              0.0000000000
      8880        89  DOPC      H5Y            30.3886584368      -21.9950305579       11.1737499100  MEMB      61              0.0000000000
      8881        89  DOPC      C36            29.2188490922      -20.4645716507       10.2220698111  MEMB      61              0.0000000000
      8882        89  DOPC      H6X            28.9569064380      -21.1090062756        9.3558072424  MEMB      61              0.0000000000
      8883        89  DOPC      H6Y            28.3651101314      -20.6270679340       10.9142010440  MEMB      61              0.0000000000
      8884        89  DOPC      C37            29.1870831751      -18.9026289986        9.8944478081  MEMB      61              0.0000000000
      8885        89  DOPC      H7X            29.3997964011      -18.3212453135       10.8169807716  MEMB      61              0.0000000000
      8886        89  DOPC      H7Y            30.0170080897      -18.7012690404        9.1838137681  MEMB      61              0.0000000000
      8887        89  DOPC      C38            27.7947417816      -18.5798459135        9.2108803350  MEMB      61              0.0000000000
      8888        89  DOPC      H8X            26.9594218291      -18.9588865240        9.8376888495  MEMB      61              0.0000000000
      8889        89  DOPC      H8Y            27.7052262459      -19.1896425040        8.2865122764  MEMB      61              0.0000000000
      8890        89  DOPC      C39            27.5145136874      -17.0944875990        8.9826309536  MEMB      61              0.0000000000
      8891        89  DOPC      H9X            27.3197919884      -16.5650745512        9.9269855602  MEMB      61              0.0000000000
      8892        89  DOPC      C310           27.4138674433      -16.4545844700        7.7582253183  MEMB      61              0.0000000000
      8893        89  DOPC      H10X           27.2911251858      -15.3656454734        7.6625896988  MEMB      61              0.0000000000
      8894        89  DOPC      C311           27.5286244850      -17.1102743015        6.3658851583  MEMB      61              0.0000000000
      8895        89  DOPC      H11X           26.5514757568      -17.0286955126        5.8435378642  MEMB      61              0.0000000000
      8896        89  DOPC      H11Y           27.7758667268      -18.1933118197        6.3807885572  MEMB      61              0.0000000000
      8897        89  DOPC      C312           28.6746457822      -16.6148961786        5.4711679285  MEMB      61              0.0000000000
      8898        89  DOPC      H12X           29.6522871130      -16.5056551392        5.9875058892  MEMB      61              0.0000000000
      8899        89  DOPC      H12Y           28.3676572159      -15.5968496352        5.1492048359  MEMB      61              0.0000000000
      8900        89  DOPC      C313           28.8852719126      -17.4636214865        4.1692338018  MEMB      61              0.0000000000
      8901        89  DOPC      H13X           29.0401576941      -18.5195234009        4.4781066511  MEMB      61              0.0000000000
      8902        89  DOPC      H13Y           27.9981752529      -17.3962873007        3.5037668265  MEMB      61              0.0000000000
      8903        89  DOPC      C314           30.0093229058      -16.9470095166        3.2811048693  MEMB      61              0.0000000000
      8904        89  DOPC      H14X           30.0812468157      -17.7042934378        2.4713722918  MEMB      61              0.0000000000
      8905        89  DOPC      H14Y           29.6932403441      -15.9495280270        2.9076836923  MEMB      61              0.0000000000
      8906        89  DOPC      C315           31.4404572479      -17.1008877283        3.8704067062  MEMB      61              0.0000000000
      8907        89  DOPC      H15X           31.8499826754      -18.1282077202        3.7644647668  MEMB      61              0.0000000000
      8908        89  DOPC      H15Y           31.4409755808      -16.6715773167        4.8951082659  MEMB      61              0.0000000000
      8909        89  DOPC      C316           32.4756376749      -16.3157003633        3.0331075450  MEMB      61              0.0000000000
      8910        89  DOPC      H16X           32.2765896297      -15.2243509340        2.9726343996  MEMB      61              0.0000000000
      8911        89  DOPC      H16Y           33.4222478705      -16.3178510854        3.6146960180  MEMB      61              0.0000000000
      8912        89  DOPC      C317           32.7678098575      -16.7642596971        1.6422198231  MEMB      61              0.0000000000
      8913        89  DOPC      H17X           33.1165356813      -17.8137364492        1.7485683689  MEMB      61              0.0000000000
      8914        89  DOPC      H17Y           31.8418761149      -16.8666179119        1.0368354772  MEMB      61              0.0000000000
      8915        89  DOPC      C318           33.8859398310      -16.0326918296        0.9128712993  MEMB      61              0.0000000000
      8916        89  DOPC      H18X           34.9073158542      -16.2748606569        1.2768301429  MEMB      61              0.0000000000
      8917        89  DOPC      H18Y           33.8083959033      -16.2884018816       -0.1655161819  MEMB      61              0.0000000000
      8918        89  DOPC      H18Z           33.8604237938      -14.9401434843        1.1128905232  MEMB      61              0.0000000000
      8919        90  DOPC      N              31.0547305966      -22.7008777602       18.2251053563  MEMB      62              0.0000000000
      8920        90  DOPC      C12            30.7874124854      -23.6565977959       19.4109380820  MEMB      62              0.0000000000
      8921        90  DOPC      H12A           30.3025478249      -24.5382875915       19.0185996907  MEMB      62              0.0000000000
      8922        90  DOPC      H12B           30.0512506477      -23.1174144398       19.9886466942  MEMB      62              0.0000000000
      8923        90  DOPC      C13            31.8654612827      -23.2960981115       17.0831247671  MEMB      62              0.0000000000
      8924        90  DOPC      H13A           31.7925123531      -22.5407618555       16.3146552284  MEMB      62              0.0000000000
      8925        90  DOPC      H13B           32.8937951485      -23.5688857427       17.2689106382  MEMB      62              0.0000000000
      8926        90  DOPC      H13C           31.3950280153      -24.2393123161       16.8476691143  MEMB      62              0.0000000000
      8927        90  DOPC      C14            31.6594191567      -21.3979459760       18.7651368979  MEMB      62              0.0000000000
      8928        90  DOPC      H14A           30.9258636560      -20.8335657325       19.3217080320  MEMB      62              0.0000000000
      8929        90  DOPC      H14B           32.4770255488      -21.7454559078       19.3792676739  MEMB      62              0.0000000000
      8930        90  DOPC      H14C           31.8826654099      -20.8655180997       17.8524038737  MEMB      62              0.0000000000
      8931        90  DOPC      C15            29.7365230411      -22.2554087218       17.7252013103  MEMB      62              0.0000000000
      8932        90  DOPC      H15A           30.0089535032      -21.3619498875       17.1830641716  MEMB      62              0.0000000000
      8933        90  DOPC      H15B           29.1342525064      -21.9157135169       18.5548260908  MEMB      62              0.0000000000
      8934        90  DOPC      H15C           29.2741004800      -22.9976043613       17.0913946163  MEMB      62              0.0000000000
      8935        90  DOPC      C11            31.9403431924      -24.0118363699       20.4622855340  MEMB      62              0.0000000000
      8936        90  DOPC      H11A           32.4044985121      -23.1106398557       20.9169565165  MEMB      62              0.0000000000
      8937        90  DOPC      H11B           31.5784326297      -24.5029406358       21.3908104378  MEMB      62              0.0000000000
      8938        90  DOPC      P              32.8167315888      -26.2947212909       19.5205252211  MEMB      62              0.0000000000
      8939        90  DOPC      O13            31.7538428926      -26.8847527982       20.4111187216  MEMB      62              0.0000000000
      8940        90  DOPC      O14            34.1451739535      -26.9139320064       19.4225323350  MEMB      62              0.0000000000
      8941        90  DOPC      O12            33.0505792271      -24.6989957570       19.8741693757  MEMB      62              0.0000000000
      8942        90  DOPC      O11            32.2292955842      -26.2294708152       18.0998624038  MEMB      62              0.0000000000
      8943        90  DOPC      C1             31.9746000166      -27.3280127899       17.2335556139  MEMB      62              0.0000000000
      8944        90  DOPC      HA             31.0051205852      -27.2054265716       16.7049696114  MEMB      62              0.0000000000
      8945        90  DOPC      HB             31.8788174997      -28.2448047562       17.8537486704  MEMB      62              0.0000000000
      8946        90  DOPC      C2             33.1507704047      -27.5661563909       16.2416816833  MEMB      62              0.0000000000
      8947        90  DOPC      HS             34.0629774914      -27.6519472423       16.8700438305  MEMB      62              0.0000000000
      8948        90  DOPC      O21            33.2253885282      -26.4077208531       15.3339782041  MEMB      62              0.0000000000
      8949        90  DOPC      C21            34.4472303555      -26.0636863835       14.8764557552  MEMB      62              0.0000000000
      8950        90  DOPC      O22            35.4358722860      -26.6237387062       15.1169332346  MEMB      62              0.0000000000
      8951        90  DOPC      C22            34.2807728189      -24.9077125293       14.0178710583  MEMB      62              0.0000000000
      8952        90  DOPC      H2R            34.8629267382      -24.0371048157       14.3886264873  MEMB      62              0.0000000000
      8953        90  DOPC      H2S            33.2581609859      -24.5571610110       13.7615511692  MEMB      62              0.0000000000
      8954        90  DOPC      C3             33.0577741755      -28.9117141436       15.4649697579  MEMB      62              0.0000000000
      8955        90  DOPC      HX             32.6345928946      -29.6758426122       16.1515163187  MEMB      62              0.0000000000
      8956        90  DOPC      HY             34.0684093822      -29.3211493068       15.2521316056  MEMB      62              0.0000000000
      8957        90  DOPC      O31            32.4508883931      -28.8454100921       14.1847996204  MEMB      62              0.0000000000
      8958        90  DOPC      C31            31.1470178816      -29.1279653656       14.2114887177  MEMB      62              0.0000000000
      8959        90  DOPC      O32            30.5102271832      -29.6634095734       15.1324775063  MEMB      62              0.0000000000
      8960        90  DOPC      C32            30.5524582673      -28.8775059366       12.8110548022  MEMB      62              0.0000000000
      8961        90  DOPC      H2X            31.3645205870      -28.4155999398       12.2097907436  MEMB      62              0.0000000000
      8962        90  DOPC      H2Y            30.3495882774      -29.8090651521       12.2406501646  MEMB      62              0.0000000000
      8963        90  DOPC      C23            35.0916371080      -25.1280377168       12.6229075666  MEMB      62              0.0000000000
      8964        90  DOPC      H3R            36.1050977299      -25.4986946806       12.8871659506  MEMB      62              0.0000000000
      8965        90  DOPC      H3S            35.3137408179      -24.1005970604       12.2632457912  MEMB      62              0.0000000000
      8966        90  DOPC      C24            34.2462199249      -25.8776793164       11.5887123350  MEMB      62              0.0000000000
      8967        90  DOPC      H4R            33.2434437787      -25.4015004121       11.5438284214  MEMB      62              0.0000000000
      8968        90  DOPC      H4S            34.1135206261      -26.9202489096       11.9489352195  MEMB      62              0.0000000000
      8969        90  DOPC      C25            34.8772420380      -25.8478497864       10.2099615089  MEMB      62              0.0000000000
      8970        90  DOPC      H5R            35.9074338382      -26.2149034340       10.4056591638  MEMB      62              0.0000000000
      8971        90  DOPC      H5S            34.9039733646      -24.8402712555        9.7426372052  MEMB      62              0.0000000000
      8972        90  DOPC      C26            34.3053366659      -26.8412895193        9.2522055898  MEMB      62              0.0000000000
      8973        90  DOPC      H6R            33.2794094362      -26.5298599667        8.9609900956  MEMB      62              0.0000000000
      8974        90  DOPC      H6S            34.1964936296      -27.8371812279        9.7324907226  MEMB      62              0.0000000000
      8975        90  DOPC      C27            34.9503328214      -26.9525592840        7.8379070307  MEMB      62              0.0000000000
      8976        90  DOPC      H7R            36.0316157740      -27.1108371095        8.0381484443  MEMB      62              0.0000000000
      8977        90  DOPC      H7S            34.8431556585      -25.9965996122        7.2820517590  MEMB      62              0.0000000000
      8978        90  DOPC      C28            34.6301863431      -28.2709135562        7.0413612673  MEMB      62              0.0000000000
      8979        90  DOPC      H8R            34.7892539360      -29.0591760465        7.8079512286  MEMB      62              0.0000000000
      8980        90  DOPC      H8S            35.4244792872      -28.3605017114        6.2697431839  MEMB      62              0.0000000000
      8981        90  DOPC      C29            33.1531023448      -28.2804025639        6.6243307788  MEMB      62              0.0000000000
      8982        90  DOPC      H9R            32.5551190618      -28.0195925210        7.5099915728  MEMB      62              0.0000000000
      8983        90  DOPC      C210           32.7161698474      -28.7884802459        5.4307883053  MEMB      62              0.0000000000
      8984        90  DOPC      H10R           31.6523235212      -28.8881905044        5.1694686976  MEMB      62              0.0000000000
      8985        90  DOPC      C211           33.5066739921      -29.4310192724        4.3252424356  MEMB      62              0.0000000000
      8986        90  DOPC      H11R           32.9029539886      -30.3309588309        4.0803916258  MEMB      62              0.0000000000
      8987        90  DOPC      H11S           34.4632130822      -29.8332785522        4.7221580480  MEMB      62              0.0000000000
      8988        90  DOPC      C212           33.7787870157      -28.6166388104        3.0468133866  MEMB      62              0.0000000000
      8989        90  DOPC      H12R           34.6463545709      -29.0862474822        2.5358189911  MEMB      62              0.0000000000
      8990        90  DOPC      H12S           34.2337790914      -27.6313603512        3.2845735860  MEMB      62              0.0000000000
      8991        90  DOPC      C213           32.6265038682      -28.4831039262        2.0514367589  MEMB      62              0.0000000000
      8992        90  DOPC      H13R           31.8220170293      -27.8680118593        2.5083662067  MEMB      62              0.0000000000
      8993        90  DOPC      H13S           32.2283030717      -29.5187827345        1.9955212355  MEMB      62              0.0000000000
      8994        90  DOPC      C214           33.1445335207      -28.1387913890        0.5925402189  MEMB      62              0.0000000000
      8995        90  DOPC      H14R           33.8595288016      -28.9058293424        0.2254491408  MEMB      62              0.0000000000
      8996        90  DOPC      H14S           33.7502573530      -27.2192210165        0.7402216933  MEMB      62              0.0000000000
      8997        90  DOPC      C215           32.0397638064      -27.7472847185       -0.4513294187  MEMB      62              0.0000000000
      8998        90  DOPC      H15R           32.4709445378      -28.1424060400       -1.3959364021  MEMB      62              0.0000000000
      8999        90  DOPC      H15S           31.9490657127      -26.6423714327       -0.5238643376  MEMB      62              0.0000000000
      9000        90  DOPC      C216           30.6365726578      -28.3909816879       -0.2076908643  MEMB      62              0.0000000000
      9001        90  DOPC      H16R           30.1412025099      -28.1398724564        0.7545318592  MEMB      62              0.0000000000
      9002        90  DOPC      H16S           30.6729018464      -29.4992323016       -0.1385370124  MEMB      62              0.0000000000
      9003        90  DOPC      C217           29.6753227228      -27.7341157902       -1.2147071224  MEMB      62              0.0000000000
      9004        90  DOPC      H17R           30.1543281892      -27.7763233698       -2.2162526016  MEMB      62              0.0000000000
      9005        90  DOPC      H17S           29.4693355282      -26.6980455587       -0.8705426307  MEMB      62              0.0000000000
      9006        90  DOPC      C218           28.2653601691      -28.2986512109       -1.1211504868  MEMB      62              0.0000000000
      9007        90  DOPC      H18R           28.2934596999      -29.3787173082       -1.3799723083  MEMB      62              0.0000000000
      9008        90  DOPC      H18S           27.5865504192      -27.7381182531       -1.7988972002  MEMB      62              0.0000000000
      9009        90  DOPC      H18T           27.9484163126      -28.1596456527       -0.0654316858  MEMB      62              0.0000000000
      9010        90  DOPC      C33            29.2705712178      -27.9740874327       12.9394892777  MEMB      62              0.0000000000
      9011        90  DOPC      H3X            29.4585541090      -27.2148815080       13.7285325394  MEMB      62              0.0000000000
      9012        90  DOPC      H3Y            28.3813137439      -28.5894930998       13.1940833052  MEMB      62              0.0000000000
      9013        90  DOPC      C34            29.0996463698      -27.1716345807       11.6105120732  MEMB      62              0.0000000000
      9014        90  DOPC      H4X            28.1324063050      -26.6320022046       11.6974875761  MEMB      62              0.0000000000
      9015        90  DOPC      H4Y            28.8607643294      -27.8003016713       10.7261850024  MEMB      62              0.0000000000
      9016        90  DOPC      C35            30.2331607286      -26.1962831270       11.3372019122  MEMB      62              0.0000000000
      9017        90  DOPC      H5X            31.2077156040      -26.7238569920       11.2582740578  MEMB      62              0.0000000000
      9018        90  DOPC      H5Y            30.3411370889      -25.5286869800       12.2186647680  MEMB      62              0.0000000000
      9019        90  DOPC      C36            30.0391633918      -25.3467693968       10.1242268247  MEMB      62              0.0000000000
      9020        90  DOPC      H6X            29.1254373404      -24.7470935236       10.3237625568  MEMB      62              0.0000000000
      9021        90  DOPC      H6Y            30.9797592279      -24.7570465604       10.0814776836  MEMB      62              0.0000000000
      9022        90  DOPC      C37            29.8658867268      -26.0269576366        8.7329931699  MEMB      62              0.0000000000
      9023        90  DOPC      H7X            30.6153835237      -26.8470188652        8.7243288350  MEMB      62              0.0000000000
      9024        90  DOPC      H7Y            28.8746223746      -26.5074534706        8.5886336599  MEMB      62              0.0000000000
      9025        90  DOPC      C38            30.1004934757      -25.0547403874        7.5932170337  MEMB      62              0.0000000000
      9026        90  DOPC      H8X            29.4641812495      -24.1738480657        7.8244234027  MEMB      62              0.0000000000
      9027        90  DOPC      H8Y            29.7435074697      -25.4960532471        6.6381647426  MEMB      62              0.0000000000
      9028        90  DOPC      C39            31.5427651501      -24.4854256377        7.4743962558  MEMB      62              0.0000000000
      9029        90  DOPC      H9X            31.9228621778      -24.1898410874        8.4634140059  MEMB      62              0.0000000000
      9030        90  DOPC      C310           32.4456971068      -24.5291885239        6.4186378246  MEMB      62              0.0000000000
      9031        90  DOPC      H10X           33.4244421244      -24.1395729351        6.7352731497  MEMB      62              0.0000000000
      9032        90  DOPC      C311           32.3153310517      -25.1083836799        5.0321388468  MEMB      62              0.0000000000
      9033        90  DOPC      H11X           31.4706933393      -25.8206894942        4.9158256510  MEMB      62              0.0000000000
      9034        90  DOPC      H11Y           33.3387754479      -25.5205109487        4.9016257443  MEMB      62              0.0000000000
      9035        90  DOPC      C312           32.1684701753      -24.0385642408        3.8980689338  MEMB      62              0.0000000000
      9036        90  DOPC      H12X           33.0416803380      -23.3516938367        3.9039380377  MEMB      62              0.0000000000
      9037        90  DOPC      H12Y           31.2583377009      -23.5289935499        4.2805837775  MEMB      62              0.0000000000
      9038        90  DOPC      C313           32.0301424290      -24.6204790778        2.4724155180  MEMB      62              0.0000000000
      9039        90  DOPC      H13X           32.3161558510      -23.9445993624        1.6383258965  MEMB      62              0.0000000000
      9040        90  DOPC      H13Y           32.7105128679      -25.4984565601        2.4484866198  MEMB      62              0.0000000000
      9041        90  DOPC      C314           30.7110998963      -25.2461816295        2.0734001581  MEMB      62              0.0000000000
      9042        90  DOPC      H14X           30.7736452562      -25.6610130333        1.0446514797  MEMB      62              0.0000000000
      9043        90  DOPC      H14Y           30.6012190596      -26.0185085173        2.8644486070  MEMB      62              0.0000000000
      9044        90  DOPC      C315           29.5104295689      -24.3355221710        2.1641392738  MEMB      62              0.0000000000
      9045        90  DOPC      H15X           29.2564448931      -23.9105467264        3.1587287373  MEMB      62              0.0000000000
      9046        90  DOPC      H15Y           28.7608141435      -25.1242479258        1.9398424937  MEMB      62              0.0000000000
      9047        90  DOPC      C316           29.5197455428      -23.2843740528        1.0946230449  MEMB      62              0.0000000000
      9048        90  DOPC      H16X           30.2675767367      -22.5339069955        1.4290910625  MEMB      62              0.0000000000
      9049        90  DOPC      H16Y           29.8189405160      -23.5721976006        0.0641081342  MEMB      62              0.0000000000
      9050        90  DOPC      C317           28.2772032585      -22.5001203469        0.8278779207  MEMB      62              0.0000000000
      9051        90  DOPC      H17X           28.0054988804      -21.8578159247        1.6927155214  MEMB      62              0.0000000000
      9052        90  DOPC      H17Y           28.4316535891      -21.8462582298       -0.0569551510  MEMB      62              0.0000000000
      9053        90  DOPC      C318           27.0173733700      -23.3766467200        0.5014454077  MEMB      62              0.0000000000
      9054        90  DOPC      H18X           26.8786008567      -24.2269064251        1.2029596034  MEMB      62              0.0000000000
      9055        90  DOPC      H18Y           26.1670824059      -22.6639973718        0.4426456896  MEMB      62              0.0000000000
      9056        90  DOPC      H18Z           27.2377631007      -23.8025643082       -0.5007244670  MEMB      62              0.0000000000
      9057        91  DOPC      N             -23.0008444146       33.1806769176       19.4251979933  MEMB      63              0.0000000000
      9058        91  DOPC      C12           -23.2741304747       34.6446298467       19.8995093625  MEMB      63              0.0000000000
      9059        91  DOPC      H12A          -22.8202051873       35.3380627652       19.2070480631  MEMB      63              0.0000000000
      9060        91  DOPC      H12B          -22.7716926141       34.8116780678       20.8408122354  MEMB      63              0.0000000000
      9061        91  DOPC      C13           -21.6341849850       32.7497997000       19.6903678829  MEMB      63              0.0000000000
      9062        91  DOPC      H13A          -21.4099597661       32.9077841574       20.7349558527  MEMB      63              0.0000000000
      9063        91  DOPC      H13B          -21.4950486749       31.6874997377       19.5541322663  MEMB      63              0.0000000000
      9064        91  DOPC      H13C          -20.9222337311       33.3518266591       19.1453091786  MEMB      63              0.0000000000
      9065        91  DOPC      C14           -23.2470012350       32.9758871716       18.0235050476  MEMB      63              0.0000000000
      9066        91  DOPC      H14A          -24.3162441135       32.9970715092       17.8729361547  MEMB      63              0.0000000000
      9067        91  DOPC      H14B          -22.8839265971       33.8214090994       17.4581119238  MEMB      63              0.0000000000
      9068        91  DOPC      H14C          -22.8188587724       32.0855431671       17.5871777547  MEMB      63              0.0000000000
      9069        91  DOPC      C15           -23.8941456075       32.2537176749       20.1760143714  MEMB      63              0.0000000000
      9070        91  DOPC      H15A          -23.6126772162       32.0712512115       21.2026015960  MEMB      63              0.0000000000
      9071        91  DOPC      H15B          -24.0125451131       31.2607085135       19.7681973948  MEMB      63              0.0000000000
      9072        91  DOPC      H15C          -24.8555277259       32.7457166282       20.1670004791  MEMB      63              0.0000000000
      9073        91  DOPC      C11           -24.6791379758       35.0454677604       20.1609245783  MEMB      63              0.0000000000
      9074        91  DOPC      H11A          -25.0603164086       34.7003529110       21.1457697310  MEMB      63              0.0000000000
      9075        91  DOPC      H11B          -24.6658471486       36.1474338537       20.3016905476  MEMB      63              0.0000000000
      9076        91  DOPC      P             -26.4365067753       35.7162746736       18.3439598559  MEMB      63              0.0000000000
      9077        91  DOPC      O13           -25.5157929647       36.5743325809       17.4828785306  MEMB      63              0.0000000000
      9078        91  DOPC      O14           -27.2379962341       36.4991428733       19.2635051433  MEMB      63              0.0000000000
      9079        91  DOPC      O12           -25.5578587295       34.6951247461       19.1032896131  MEMB      63              0.0000000000
      9080        91  DOPC      O11           -27.3755228280       34.8198738188       17.4308476217  MEMB      63              0.0000000000
      9081        91  DOPC      C1            -26.9443944589       33.5223806653       17.1043367260  MEMB      63              0.0000000000
      9082        91  DOPC      HA            -27.9054198132       33.0184613516       16.8659745529  MEMB      63              0.0000000000
      9083        91  DOPC      HB            -26.4536376380       32.9965544556       17.9510866838  MEMB      63              0.0000000000
      9084        91  DOPC      C2            -26.0611992379       33.4244056960       15.8091504789  MEMB      63              0.0000000000
      9085        91  DOPC      HS            -25.0389137795       33.3417505125       16.2362589228  MEMB      63              0.0000000000
      9086        91  DOPC      O21           -26.3780357840       34.4945304467       15.0167686697  MEMB      63              0.0000000000
      9087        91  DOPC      C21           -25.3687732977       35.2052931040       14.5089223478  MEMB      63              0.0000000000
      9088        91  DOPC      O22           -24.2216677991       35.0981728423       14.8721517456  MEMB      63              0.0000000000
      9089        91  DOPC      C22           -25.7756392331       36.1871275098       13.3230843711  MEMB      63              0.0000000000
      9090        91  DOPC      H2R           -25.6928521268       37.2707332439       13.5538784727  MEMB      63              0.0000000000
      9091        91  DOPC      H2S           -26.8403253458       35.9802559238       13.0823176351  MEMB      63              0.0000000000
      9092        91  DOPC      C3            -26.3306249935       32.0721994549       15.1808663158  MEMB      63              0.0000000000
      9093        91  DOPC      HX            -27.3310797740       32.0326084702       14.6993648692  MEMB      63              0.0000000000
      9094        91  DOPC      HY            -26.1965886812       31.2768836630       15.9449526374  MEMB      63              0.0000000000
      9095        91  DOPC      O31           -25.2518757433       31.8931780131       14.1889870800  MEMB      63              0.0000000000
      9096        91  DOPC      C31           -24.6854223212       30.7477276705       13.9044491711  MEMB      63              0.0000000000
      9097        91  DOPC      O32           -25.1224593484       29.6363588144       14.2016065080  MEMB      63              0.0000000000
      9098        91  DOPC      C32           -23.4264277677       30.9941768463       13.2241450063  MEMB      63              0.0000000000
      9099        91  DOPC      H2X           -22.7935796080       31.6683201183       13.8400631480  MEMB      63              0.0000000000
      9100        91  DOPC      H2Y           -22.9419514527       30.0046043118       13.0814915110  MEMB      63              0.0000000000
      9101        91  DOPC      C23           -24.9465394747       36.0614685190       11.9934405335  MEMB      63              0.0000000000
      9102        91  DOPC      H3R           -24.9316754538       35.0752704578       11.4820565417  MEMB      63              0.0000000000
      9103        91  DOPC      H3S           -23.8968519930       36.3730905424       12.1815063533  MEMB      63              0.0000000000
      9104        91  DOPC      C24           -25.3173555027       37.0887376582       10.8900092021  MEMB      63              0.0000000000
      9105        91  DOPC      H4R           -24.4279311224       37.1428652252       10.2264466566  MEMB      63              0.0000000000
      9106        91  DOPC      H4S           -25.5591867433       38.0465281377       11.3984148987  MEMB      63              0.0000000000
      9107        91  DOPC      C25           -26.4892948756       36.8484958472        9.9495117381  MEMB      63              0.0000000000
      9108        91  DOPC      H5R           -26.4813469927       37.5382892914        9.0786252109  MEMB      63              0.0000000000
      9109        91  DOPC      H5S           -27.4707489543       36.9353927296       10.4628515651  MEMB      63              0.0000000000
      9110        91  DOPC      C26           -26.5100112924       35.3962856908        9.4257177370  MEMB      63              0.0000000000
      9111        91  DOPC      H6R           -26.5279080017       34.7710230687       10.3438938541  MEMB      63              0.0000000000
      9112        91  DOPC      H6S           -25.5611682510       35.0206790455        8.9864715051  MEMB      63              0.0000000000
      9113        91  DOPC      C27           -27.6574054411       34.9692135264        8.4837548727  MEMB      63              0.0000000000
      9114        91  DOPC      H7R           -27.6434012712       35.4270548698        7.4715757059  MEMB      63              0.0000000000
      9115        91  DOPC      H7S           -28.6441803008       35.3205939305        8.8540628983  MEMB      63              0.0000000000
      9116        91  DOPC      C28           -27.5197849079       33.4306992751        8.1915274530  MEMB      63              0.0000000000
      9117        91  DOPC      H8R           -27.4829080222       32.9932262875        9.2121042370  MEMB      63              0.0000000000
      9118        91  DOPC      H8S           -26.4821597297       33.2648699237        7.8307562406  MEMB      63              0.0000000000
      9119        91  DOPC      C29           -28.5477439673       33.0177643047        7.2057051497  MEMB      63              0.0000000000
      9120        91  DOPC      H9R           -29.3565944651       33.7183741823        6.9509379430  MEMB      63              0.0000000000
      9121        91  DOPC      C210          -28.5767640711       31.7874037655        6.5891696428  MEMB      63              0.0000000000
      9122        91  DOPC      H10R          -29.2365643903       31.5511742998        5.7413133893  MEMB      63              0.0000000000
      9123        91  DOPC      C211          -27.5464192246       30.7101895179        6.8731728841  MEMB      63              0.0000000000
      9124        91  DOPC      H11R          -27.8833831188       29.6548929618        6.9575845081  MEMB      63              0.0000000000
      9125        91  DOPC      H11S          -26.9829752049       30.8828610083        7.8149992696  MEMB      63              0.0000000000
      9126        91  DOPC      C212          -26.4335114355       30.7489599200        5.8889725675  MEMB      63              0.0000000000
      9127        91  DOPC      H12R          -25.6150517775       30.2295161403        6.4317635207  MEMB      63              0.0000000000
      9128        91  DOPC      H12S          -26.0079444807       31.7695544823        5.7812673690  MEMB      63              0.0000000000
      9129        91  DOPC      C213          -26.6914858174       30.1841897939        4.4625664075  MEMB      63              0.0000000000
      9130        91  DOPC      H13R          -27.2632950147       30.9540292759        3.9015828979  MEMB      63              0.0000000000
      9131        91  DOPC      H13S          -27.3285870086       29.2897480450        4.6310808541  MEMB      63              0.0000000000
      9132        91  DOPC      C214          -25.3307835408       29.8470760774        3.8210626934  MEMB      63              0.0000000000
      9133        91  DOPC      H14R          -25.5596964266       29.4337848482        2.8155223167  MEMB      63              0.0000000000
      9134        91  DOPC      H14S          -24.8360412620       29.0502738274        4.4165939424  MEMB      63              0.0000000000
      9135        91  DOPC      C215          -24.3487234917       31.0401775909        3.7151882891  MEMB      63              0.0000000000
      9136        91  DOPC      H15R          -23.9791288045       31.3815787835        4.7057266861  MEMB      63              0.0000000000
      9137        91  DOPC      H15S          -24.9030867406       31.8602911982        3.2107918459  MEMB      63              0.0000000000
      9138        91  DOPC      C216          -23.1067044041       30.8473562020        2.7120384461  MEMB      63              0.0000000000
      9139        91  DOPC      H16R          -23.6034759409       30.7173504489        1.7268279370  MEMB      63              0.0000000000
      9140        91  DOPC      H16S          -22.6000904280       29.8633645735        2.8091143714  MEMB      63              0.0000000000
      9141        91  DOPC      C217          -22.1293302023       32.0640346867        2.6986749229  MEMB      63              0.0000000000
      9142        91  DOPC      H17R          -21.3964957166       31.9996990798        3.5312225973  MEMB      63              0.0000000000
      9143        91  DOPC      H17S          -22.6991828819       33.0136352905        2.7872632924  MEMB      63              0.0000000000
      9144        91  DOPC      C218          -21.3723691522       32.0732283869        1.3994292871  MEMB      63              0.0000000000
      9145        91  DOPC      H18R          -22.0726012947       32.0189441277        0.5385869074  MEMB      63              0.0000000000
      9146        91  DOPC      H18S          -20.6653742362       31.2202514913        1.3163057027  MEMB      63              0.0000000000
      9147        91  DOPC      H18T          -20.7746696310       33.0079657100        1.3416136436  MEMB      63              0.0000000000
      9148        91  DOPC      C33           -23.6207224697       31.6392976608       11.8408454620  MEMB      63              0.0000000000
      9149        91  DOPC      H3X           -22.6638920967       32.0723960332       11.4785993477  MEMB      63              0.0000000000
      9150        91  DOPC      H3Y           -24.3968555260       32.4332932673       11.8796989973  MEMB      63              0.0000000000
      9151        91  DOPC      C34           -23.8983587228       30.7632052559       10.6231920134  MEMB      63              0.0000000000
      9152        91  DOPC      H4X           -24.9187210908       30.4356057282       10.9162110408  MEMB      63              0.0000000000
      9153        91  DOPC      H4Y           -23.1434041224       29.9595581316       10.4871176545  MEMB      63              0.0000000000
      9154        91  DOPC      C35           -24.0754720172       31.6830532020        9.3651102290  MEMB      63              0.0000000000
      9155        91  DOPC      H5X           -24.3905211294       32.7347772245        9.5352331340  MEMB      63              0.0000000000
      9156        91  DOPC      H5Y           -24.7887901876       31.2556659595        8.6283353087  MEMB      63              0.0000000000
      9157        91  DOPC      C36           -22.6666341264       31.7645196425        8.6705366603  MEMB      63              0.0000000000
      9158        91  DOPC      H6X           -21.9828854696       32.3627572146        9.3100065861  MEMB      63              0.0000000000
      9159        91  DOPC      H6Y           -22.3388183975       30.7050137292        8.6049230450  MEMB      63              0.0000000000
      9160        91  DOPC      C37           -22.7469773917       32.2213052491        7.1959827406  MEMB      63              0.0000000000
      9161        91  DOPC      H7X           -21.8123848331       31.9893509806        6.6418567425  MEMB      63              0.0000000000
      9162        91  DOPC      H7Y           -23.5084687939       31.6108176217        6.6651744425  MEMB      63              0.0000000000
      9163        91  DOPC      C38           -23.1091012689       33.6467477068        7.1035205411  MEMB      63              0.0000000000
      9164        91  DOPC      H8X           -22.4530408400       34.0998074591        7.8772406202  MEMB      63              0.0000000000
      9165        91  DOPC      H8Y           -24.1150894481       33.9055850644        7.4976177220  MEMB      63              0.0000000000
      9166        91  DOPC      C39           -22.8832151159       34.2823905650        5.7547220747  MEMB      63              0.0000000000
      9167        91  DOPC      H9X           -21.9779706629       33.9262141438        5.2412335365  MEMB      63              0.0000000000
      9168        91  DOPC      C310          -23.5501109868       35.2617142504        5.0935471386  MEMB      63              0.0000000000
      9169        91  DOPC      H10X          -23.2332454352       35.6507053415        4.1146287818  MEMB      63              0.0000000000
      9170        91  DOPC      C311          -24.7699365210       35.9099702494        5.7263988754  MEMB      63              0.0000000000
      9171        91  DOPC      H11X          -24.5042024384       36.8269457531        6.2946092001  MEMB      63              0.0000000000
      9172        91  DOPC      H11Y          -25.3060498761       35.2762818545        6.4648721587  MEMB      63              0.0000000000
      9173        91  DOPC      C312          -25.8053409760       36.3852601815        4.8087362429  MEMB      63              0.0000000000
      9174        91  DOPC      H12X          -25.2786750797       37.0858194622        4.1259769057  MEMB      63              0.0000000000
      9175        91  DOPC      H12Y          -26.6259781550       36.8954248913        5.3570130560  MEMB      63              0.0000000000
      9176        91  DOPC      C313          -26.4926178695       35.2942277725        3.9683631146  MEMB      63              0.0000000000
      9177        91  DOPC      H13X          -25.6792730772       34.6382583014        3.5908782238  MEMB      63              0.0000000000
      9178        91  DOPC      H13Y          -27.1839549120       34.7957701254        4.6810446360  MEMB      63              0.0000000000
      9179        91  DOPC      C314          -27.3594255411       35.7366350565        2.7846849184  MEMB      63              0.0000000000
      9180        91  DOPC      H14X          -28.3382329774       36.1890064476        3.0522987210  MEMB      63              0.0000000000
      9181        91  DOPC      H14Y          -26.8371387283       36.5839786262        2.2911808671  MEMB      63              0.0000000000
      9182        91  DOPC      C315          -27.6142980695       34.5842500142        1.7903035706  MEMB      63              0.0000000000
      9183        91  DOPC      H15X          -26.6481689817       34.2157781440        1.3839253901  MEMB      63              0.0000000000
      9184        91  DOPC      H15Y          -28.3320042827       34.9354575168        1.0183765559  MEMB      63              0.0000000000
      9185        91  DOPC      C316          -28.3624087041       33.4648469653        2.5285506147  MEMB      63              0.0000000000
      9186        91  DOPC      H16X          -27.8862186963       33.0545364591        3.4446349066  MEMB      63              0.0000000000
      9187        91  DOPC      H16Y          -29.3281677837       33.8941558017        2.8710767879  MEMB      63              0.0000000000
      9188        91  DOPC      C317          -28.6286672289       32.2584530115        1.6144971328  MEMB      63              0.0000000000
      9189        91  DOPC      H17X          -29.1907802199       32.7013646392        0.7646845653  MEMB      63              0.0000000000
      9190        91  DOPC      H17Y          -27.6916238540       31.7535363355        1.2961740371  MEMB      63              0.0000000000
      9191        91  DOPC      C318          -29.5600960406       31.2446589051        2.3518007281  MEMB      63              0.0000000000
      9192        91  DOPC      H18X          -29.7702174857       30.3620181362        1.7106182866  MEMB      63              0.0000000000
      9193        91  DOPC      H18Y          -29.3252497873       30.8266614213        3.3540223999  MEMB      63              0.0000000000
      9194        91  DOPC      H18Z          -30.5552934958       31.7107149143        2.5151865438  MEMB      63              0.0000000000
      9195        92  DOPC      N             -31.7898799245       29.8653437528       20.9511564038  MEMB      64              0.0000000000
      9196        92  DOPC      C12           -30.8571210997       29.9575781734       19.6960945478  MEMB      64              0.0000000000
      9197        92  DOPC      H12A          -30.9765039610       29.0050379264       19.2013069987  MEMB      64              0.0000000000
      9198        92  DOPC      H12B          -29.8446448455       30.0386132417       20.0631437962  MEMB      64              0.0000000000
      9199        92  DOPC      C13           -33.2540951590       29.6497100867       20.6581294783  MEMB      64              0.0000000000
      9200        92  DOPC      H13A          -33.7675394544       29.1990222655       21.4945836094  MEMB      64              0.0000000000
      9201        92  DOPC      H13B          -33.6359597752       30.6427723941       20.4726392192  MEMB      64              0.0000000000
      9202        92  DOPC      H13C          -33.3310557326       29.1567640003       19.7002769861  MEMB      64              0.0000000000
      9203        92  DOPC      C14           -31.6279512906       31.2392348189       21.5579390785  MEMB      64              0.0000000000
      9204        92  DOPC      H14A          -32.1769848917       31.9036888614       20.9071988453  MEMB      64              0.0000000000
      9205        92  DOPC      H14B          -31.8062845148       31.3155476517       22.6203765971  MEMB      64              0.0000000000
      9206        92  DOPC      H14C          -30.6111804680       31.5191969940       21.3251338641  MEMB      64              0.0000000000
      9207        92  DOPC      C15           -31.1318668883       28.8837939841       21.9244430394  MEMB      64              0.0000000000
      9208        92  DOPC      H15A          -30.1340362979       29.2449974294       22.1251072378  MEMB      64              0.0000000000
      9209        92  DOPC      H15B          -30.9238836486       27.9058923509       21.5159690489  MEMB      64              0.0000000000
      9210        92  DOPC      H15C          -31.7561929647       28.7156021654       22.7895030635  MEMB      64              0.0000000000
      9211        92  DOPC      C11           -31.2813194705       31.1945868153       18.7781433724  MEMB      64              0.0000000000
      9212        92  DOPC      H11A          -31.1195897968       32.1223368515       19.3675874894  MEMB      64              0.0000000000
      9213        92  DOPC      H11B          -30.6235779407       31.2180772475       17.8830761246  MEMB      64              0.0000000000
      9214        92  DOPC      P             -33.2921438343       30.7326831982       17.0779020433  MEMB      64              0.0000000000
      9215        92  DOPC      O13           -34.3769640937       31.6450318256       16.6049862618  MEMB      64              0.0000000000
      9216        92  DOPC      O14           -33.7148333260       29.3481237348       17.2233495065  MEMB      64              0.0000000000
      9217        92  DOPC      O12           -32.6889688379       31.2594775086       18.4378045192  MEMB      64              0.0000000000
      9218        92  DOPC      O11           -32.0800746768       30.8097696059       16.0900517509  MEMB      64              0.0000000000
      9219        92  DOPC      C1            -31.6965194961       32.1025005699       15.6318651921  MEMB      64              0.0000000000
      9220        92  DOPC      HA            -30.6310962773       32.3084811131       15.8701217702  MEMB      64              0.0000000000
      9221        92  DOPC      HB            -32.2337105156       32.9930963278       16.0224874656  MEMB      64              0.0000000000
      9222        92  DOPC      C2            -31.7379001444       32.1655076824       14.0059786183  MEMB      64              0.0000000000
      9223        92  DOPC      HS            -31.4950079239       33.2069621736       13.7048194732  MEMB      64              0.0000000000
      9224        92  DOPC      O21           -33.1780467815       31.7437657237       13.6763427937  MEMB      64              0.0000000000
      9225        92  DOPC      C21           -33.6569602824       31.9079116363       12.4073126696  MEMB      64              0.0000000000
      9226        92  DOPC      O22           -33.0209047133       32.2146992171       11.4401348419  MEMB      64              0.0000000000
      9227        92  DOPC      C22           -35.2419113918       31.9520512726       12.6002876959  MEMB      64              0.0000000000
      9228        92  DOPC      H2R           -35.7152743865       32.1004481152       11.6061917891  MEMB      64              0.0000000000
      9229        92  DOPC      H2S           -35.4595173091       32.8476512669       13.2206659210  MEMB      64              0.0000000000
      9230        92  DOPC      C3            -30.6197715045       31.2319972363       13.4009958264  MEMB      64              0.0000000000
      9231        92  DOPC      HX            -29.6597803825       31.5407235791       13.8672854156  MEMB      64              0.0000000000
      9232        92  DOPC      HY            -30.3671448898       31.4716151041       12.3459677238  MEMB      64              0.0000000000
      9233        92  DOPC      O31           -30.9353014721       29.8392978365       13.5361951028  MEMB      64              0.0000000000
      9234        92  DOPC      C31           -29.9260146516       29.1464297301       14.0757148036  MEMB      64              0.0000000000
      9235        92  DOPC      O32           -28.8667255793       29.5651731718       14.5481363059  MEMB      64              0.0000000000
      9236        92  DOPC      C32           -30.2889311809       27.7167342193       13.9737191279  MEMB      64              0.0000000000
      9237        92  DOPC      H2X           -30.8373778223       27.5148791133       14.9185906366  MEMB      64              0.0000000000
      9238        92  DOPC      H2Y           -31.0628983396       27.5539319508       13.1934683031  MEMB      64              0.0000000000
      9239        92  DOPC      C23           -35.8889775664       30.6844947163       13.1246957661  MEMB      64              0.0000000000
      9240        92  DOPC      H3R           -36.8343310589       30.9698509788       13.6338125135  MEMB      64              0.0000000000
      9241        92  DOPC      H3S           -35.3176768280       30.0975287382       13.8753002266  MEMB      64              0.0000000000
      9242        92  DOPC      C24           -36.3915041480       29.7311640430       12.0299214275  MEMB      64              0.0000000000
      9243        92  DOPC      H4R           -37.0741166057       30.3419129206       11.4011550809  MEMB      64              0.0000000000
      9244        92  DOPC      H4S           -37.0519244891       29.0236528779       12.5754424916  MEMB      64              0.0000000000
      9245        92  DOPC      C25           -35.2311933724       29.0642723240       11.3224583993  MEMB      64              0.0000000000
      9246        92  DOPC      H5R           -35.4457919503       27.9789027141       11.2212608123  MEMB      64              0.0000000000
      9247        92  DOPC      H5S           -34.2826777232       29.1536448128       11.8939926718  MEMB      64              0.0000000000
      9248        92  DOPC      C26           -34.9593405176       29.5340622912        9.9251658761  MEMB      64              0.0000000000
      9249        92  DOPC      H6R           -34.7525512544       30.6254711737        9.9447991217  MEMB      64              0.0000000000
      9250        92  DOPC      H6S           -35.7348972890       29.2905720215        9.1678382122  MEMB      64              0.0000000000
      9251        92  DOPC      C27           -33.5702328329       28.8627286312        9.4633620398  MEMB      64              0.0000000000
      9252        92  DOPC      H7R           -32.6722358509       29.3357243809        9.9152442619  MEMB      64              0.0000000000
      9253        92  DOPC      H7S           -33.5266419339       28.9269650708        8.3550771982  MEMB      64              0.0000000000
      9254        92  DOPC      C28           -33.3458200569       27.3561228816        9.7146568979  MEMB      64              0.0000000000
      9255        92  DOPC      H8R           -34.2521009673       26.7798426805        9.4302683897  MEMB      64              0.0000000000
      9256        92  DOPC      H8S           -33.4323661583       27.2061585696       10.8120816525  MEMB      64              0.0000000000
      9257        92  DOPC      C29           -32.0190294695       26.7664320699        9.3588141324  MEMB      64              0.0000000000
      9258        92  DOPC      H9R           -31.4121132321       26.5126066289       10.2404179739  MEMB      64              0.0000000000
      9259        92  DOPC      C210          -31.4534468322       26.5883343391        8.1438171898  MEMB      64              0.0000000000
      9260        92  DOPC      H10R          -30.4902330879       26.0927883246        7.9523673147  MEMB      64              0.0000000000
      9261        92  DOPC      C211          -32.0113705683       26.9604132844        6.8304764355  MEMB      64              0.0000000000
      9262        92  DOPC      H11R          -33.0918709325       27.1732757800        6.9772066935  MEMB      64              0.0000000000
      9263        92  DOPC      H11S          -31.8124335795       26.1193428136        6.1323755129  MEMB      64              0.0000000000
      9264        92  DOPC      C212          -31.3793969893       28.2579771795        6.2265407996  MEMB      64              0.0000000000
      9265        92  DOPC      H12R          -31.5391387645       29.0832656143        6.9529722425  MEMB      64              0.0000000000
      9266        92  DOPC      H12S          -31.9576198824       28.5167653027        5.3138486795  MEMB      64              0.0000000000
      9267        92  DOPC      C213          -29.9353627905       28.0630247245        5.8184361644  MEMB      64              0.0000000000
      9268        92  DOPC      H13R          -29.8096901774       27.1976656158        5.1331039506  MEMB      64              0.0000000000
      9269        92  DOPC      H13S          -29.3522782804       27.6611840727        6.6745075111  MEMB      64              0.0000000000
      9270        92  DOPC      C214          -29.2071072488       29.2820688140        5.2770766480  MEMB      64              0.0000000000
      9271        92  DOPC      H14R          -28.1634197988       29.0536243114        4.9723619809  MEMB      64              0.0000000000
      9272        92  DOPC      H14S          -29.0911827958       30.0579249706        6.0637972533  MEMB      64              0.0000000000
      9273        92  DOPC      C215          -29.8491440124       29.7921264966        3.9501622011  MEMB      64              0.0000000000
      9274        92  DOPC      H15R          -30.8182006628       30.2052910424        4.3030710722  MEMB      64              0.0000000000
      9275        92  DOPC      H15S          -30.0753130121       29.0500362569        3.1548816410  MEMB      64              0.0000000000
      9276        92  DOPC      C216          -28.8705901363       30.7418420771        3.2469221941  MEMB      64              0.0000000000
      9277        92  DOPC      H16R          -27.8834479908       30.2321223362        3.2393749003  MEMB      64              0.0000000000
      9278        92  DOPC      H16S          -28.9584182779       31.7538388038        3.6968886985  MEMB      64              0.0000000000
      9279        92  DOPC      C217          -29.2537927442       30.9203666412        1.7749297985  MEMB      64              0.0000000000
      9280        92  DOPC      H17R          -30.3126586029       31.2446017988        1.6855108983  MEMB      64              0.0000000000
      9281        92  DOPC      H17S          -29.1450303879       29.8927301750        1.3669406037  MEMB      64              0.0000000000
      9282        92  DOPC      C218          -28.2750657566       31.6762868297        0.8653033172  MEMB      64              0.0000000000
      9283        92  DOPC      H18R          -27.2391933363       31.4103239010        1.1662232464  MEMB      64              0.0000000000
      9284        92  DOPC      H18S          -28.2940543170       32.7742387263        1.0340099003  MEMB      64              0.0000000000
      9285        92  DOPC      H18T          -28.4212963900       31.1781830349       -0.1169536059  MEMB      64              0.0000000000
      9286        92  DOPC      C33           -28.9996894967       26.8719258419       13.7755604051  MEMB      64              0.0000000000
      9287        92  DOPC      H3X           -29.2762605976       25.7981184027       13.7065170215  MEMB      64              0.0000000000
      9288        92  DOPC      H3Y           -28.3595853333       27.0005151031       14.6744777087  MEMB      64              0.0000000000
      9289        92  DOPC      C34           -28.1049969071       27.3055982597       12.6074882157  MEMB      64              0.0000000000
      9290        92  DOPC      H4X           -27.3689944986       26.5176579310       12.3395854744  MEMB      64              0.0000000000
      9291        92  DOPC      H4Y           -27.5679089397       28.1365549164       13.1128284707  MEMB      64              0.0000000000
      9292        92  DOPC      C35           -28.7985360652       27.7971848274       11.3521011216  MEMB      64              0.0000000000
      9293        92  DOPC      H5X           -29.4582756916       28.6593615416       11.5881433196  MEMB      64              0.0000000000
      9294        92  DOPC      H5Y           -29.3177227927       26.9834403521       10.8020225346  MEMB      64              0.0000000000
      9295        92  DOPC      C36           -27.8276351876       28.3901894404       10.2164116543  MEMB      64              0.0000000000
      9296        92  DOPC      H6X           -27.2038419315       29.2152312421       10.6220085595  MEMB      64              0.0000000000
      9297        92  DOPC      H6Y           -27.1223221899       27.5774936698        9.9400414475  MEMB      64              0.0000000000
      9298        92  DOPC      C37           -28.5220504538       28.9618860007        8.9719799046  MEMB      64              0.0000000000
      9299        92  DOPC      H7X           -28.0196767448       28.6575756592        8.0289331021  MEMB      64              0.0000000000
      9300        92  DOPC      H7Y           -29.5907767880       28.6584266734        8.9795608696  MEMB      64              0.0000000000
      9301        92  DOPC      C38           -28.4085847640       30.5259717736        8.9847297044  MEMB      64              0.0000000000
      9302        92  DOPC      H8X           -28.5711796787       30.8933108178        7.9488988850  MEMB      64              0.0000000000
      9303        92  DOPC      H8Y           -27.3173720932       30.6774999625        9.1283104398  MEMB      64              0.0000000000
      9304        92  DOPC      C39           -29.1317851993       31.3971873821        9.9865376462  MEMB      64              0.0000000000
      9305        92  DOPC      H9X           -28.7385895776       31.1884715913       10.9924380925  MEMB      64              0.0000000000
      9306        92  DOPC      C310          -29.9733910271       32.4493835525        9.8571916142  MEMB      64              0.0000000000
      9307        92  DOPC      H10X          -30.3534434584       32.9318670136       10.7697543173  MEMB      64              0.0000000000
      9308        92  DOPC      C311          -30.4548270719       33.1751376159        8.5845384352  MEMB      64              0.0000000000
      9309        92  DOPC      H11X          -29.9781910415       32.8084221455        7.6503762242  MEMB      64              0.0000000000
      9310        92  DOPC      H11Y          -30.5002787663       34.2851472495        8.5960959436  MEMB      64              0.0000000000
      9311        92  DOPC      C312          -31.9479984789       32.6451085726        8.3530483296  MEMB      64              0.0000000000
      9312        92  DOPC      H12X          -32.6826108739       32.7394525698        9.1811574387  MEMB      64              0.0000000000
      9313        92  DOPC      H12Y          -31.8817749391       31.5818784829        8.0376484837  MEMB      64              0.0000000000
      9314        92  DOPC      C313          -32.6942836833       33.5697490231        7.3405513895  MEMB      64              0.0000000000
      9315        92  DOPC      H13X          -33.7367481786       33.3020782754        7.6161251251  MEMB      64              0.0000000000
      9316        92  DOPC      H13Y          -32.3992586397       34.6224354007        7.5383704010  MEMB      64              0.0000000000
      9317        92  DOPC      C314          -32.3955065293       33.2023458721        5.8490430195  MEMB      64              0.0000000000
      9318        92  DOPC      H14X          -32.9137980779       33.9441315306        5.2044898062  MEMB      64              0.0000000000
      9319        92  DOPC      H14Y          -31.2921761533       33.2119192902        5.7190771853  MEMB      64              0.0000000000
      9320        92  DOPC      C315          -32.9161626043       31.8680970173        5.3244728541  MEMB      64              0.0000000000
      9321        92  DOPC      H15X          -33.9861094710       31.7643936774        5.6051503181  MEMB      64              0.0000000000
      9322        92  DOPC      H15Y          -32.2747708309       31.0064308966        5.6081439500  MEMB      64              0.0000000000
      9323        92  DOPC      C316          -33.0710681305       31.8852426387        3.7497029142  MEMB      64              0.0000000000
      9324        92  DOPC      H16X          -33.8498233218       32.6632466091        3.5994661355  MEMB      64              0.0000000000
      9325        92  DOPC      H16Y          -32.3169611236       32.3789532794        3.1001703169  MEMB      64              0.0000000000
      9326        92  DOPC      C317          -33.5548005784       30.5354873562        3.1593529627  MEMB      64              0.0000000000
      9327        92  DOPC      H17X          -32.7866516905       29.7520999964        3.3342024184  MEMB      64              0.0000000000
      9328        92  DOPC      H17Y          -34.5069182227       30.2852900774        3.6743238520  MEMB      64              0.0000000000
      9329        92  DOPC      C318          -33.7726789431       30.7157929858        1.6038605084  MEMB      64              0.0000000000
      9330        92  DOPC      H18X          -34.3441710741       31.6131428430        1.2837331185  MEMB      64              0.0000000000
      9331        92  DOPC      H18Y          -32.8289497569       30.6165021397        1.0260725303  MEMB      64              0.0000000000
      9332        92  DOPC      H18Z          -34.4084070574       29.8673420378        1.2717433366  MEMB      64              0.0000000000
      9333        93  DOPC      N             -32.3059713932      -31.9888903305       20.2565618966  MEMB      65              0.0000000000
      9334        93  DOPC      C12           -32.2698797743      -31.7130152447       18.7111087506  MEMB      65              0.0000000000
      9335        93  DOPC      H12A          -33.0144208934      -32.4021490071       18.3407671500  MEMB      65              0.0000000000
      9336        93  DOPC      H12B          -31.2793886866      -32.0477805389       18.4404436298  MEMB      65              0.0000000000
      9337        93  DOPC      C13           -31.8780652301      -33.4114036598       20.3343107173  MEMB      65              0.0000000000
      9338        93  DOPC      H13A          -32.4888389949      -33.9856263550       19.6534115481  MEMB      65              0.0000000000
      9339        93  DOPC      H13B          -30.8386254714      -33.4627668808       20.0456468732  MEMB      65              0.0000000000
      9340        93  DOPC      H13C          -31.8616982154      -33.7472368286       21.3606381067  MEMB      65              0.0000000000
      9341        93  DOPC      C14           -33.7017990711      -31.7451826823       20.6548636251  MEMB      65              0.0000000000
      9342        93  DOPC      H14A          -34.3037805137      -32.5877029861       20.3479799820  MEMB      65              0.0000000000
      9343        93  DOPC      H14B          -33.7282660494      -31.6208669926       21.7273584547  MEMB      65              0.0000000000
      9344        93  DOPC      H14C          -34.0899557772      -30.9187759029       20.0779874523  MEMB      65              0.0000000000
      9345        93  DOPC      C15           -31.4722491640      -31.1218862626       21.1302328793  MEMB      65              0.0000000000
      9346        93  DOPC      H15A          -30.4476550058      -31.4095695351       20.9462620718  MEMB      65              0.0000000000
      9347        93  DOPC      H15B          -31.6651135650      -31.2905579917       22.1794006461  MEMB      65              0.0000000000
      9348        93  DOPC      H15C          -31.8041678674      -30.1096424906       20.9524900632  MEMB      65              0.0000000000
      9349        93  DOPC      C11           -32.5462270776      -30.2658257514       18.2220158849  MEMB      65              0.0000000000
      9350        93  DOPC      H11A          -32.3961215037      -30.3531778953       17.1246741719  MEMB      65              0.0000000000
      9351        93  DOPC      H11B          -33.6276416110      -30.0594395971       18.3712413097  MEMB      65              0.0000000000
      9352        93  DOPC      P             -30.8063011240      -28.3173900240       17.9730481975  MEMB      65              0.0000000000
      9353        93  DOPC      O13           -29.8898720303      -27.5080764380       18.7328826909  MEMB      65              0.0000000000
      9354        93  DOPC      O14           -31.7503114846      -27.6201445505       17.0612794883  MEMB      65              0.0000000000
      9355        93  DOPC      O12           -31.6690153475      -29.2942770795       18.8300623312  MEMB      65              0.0000000000
      9356        93  DOPC      O11           -29.8819144974      -29.2979941586       17.0936335389  MEMB      65              0.0000000000
      9357        93  DOPC      C1            -28.9825925612      -30.2249142126       17.6930250777  MEMB      65              0.0000000000
      9358        93  DOPC      HA            -29.5543614193      -31.0347250722       18.1946301249  MEMB      65              0.0000000000
      9359        93  DOPC      HB            -28.4267990431      -29.8023407103       18.5572276247  MEMB      65              0.0000000000
      9360        93  DOPC      C2            -28.0370098542      -30.8424403562       16.7204185654  MEMB      65              0.0000000000
      9361        93  DOPC      HS            -26.9708156320      -30.8597841220       17.0322677795  MEMB      65              0.0000000000
      9362        93  DOPC      O21           -28.1412255585      -30.2113839923       15.4660729147  MEMB      65              0.0000000000
      9363        93  DOPC      C21           -27.4986270858      -29.0209561568       15.3953238918  MEMB      65              0.0000000000
      9364        93  DOPC      O22           -26.9130108478      -28.5030086662       16.3160949786  MEMB      65              0.0000000000
      9365        93  DOPC      C22           -27.7242534485      -28.3982179900       14.0248001622  MEMB      65              0.0000000000
      9366        93  DOPC      H2R           -26.7389576460      -27.9524511604       13.7702321719  MEMB      65              0.0000000000
      9367        93  DOPC      H2S           -28.5208791155      -27.6282492060       14.1076065525  MEMB      65              0.0000000000
      9368        93  DOPC      C3            -28.3497915382      -32.3698860879       16.5162965327  MEMB      65              0.0000000000
      9369        93  DOPC      HX            -27.9676157250      -32.8805611574       17.4259522487  MEMB      65              0.0000000000
      9370        93  DOPC      HY            -27.6819326201      -32.6830635821       15.6855104580  MEMB      65              0.0000000000
      9371        93  DOPC      O31           -29.7756654423      -32.6501449779       16.3299460494  MEMB      65              0.0000000000
      9372        93  DOPC      C31           -30.2101203049      -32.8570313979       15.1046740639  MEMB      65              0.0000000000
      9373        93  DOPC      O32           -29.5885314435      -32.8536422521       14.0827410054  MEMB      65              0.0000000000
      9374        93  DOPC      C32           -31.7236611401      -32.9710340948       15.1949934110  MEMB      65              0.0000000000
      9375        93  DOPC      H2X           -31.9269129597      -33.7452116470       15.9654858736  MEMB      65              0.0000000000
      9376        93  DOPC      H2Y           -32.0328492701      -31.9512525268       15.5092692819  MEMB      65              0.0000000000
      9377        93  DOPC      C23           -28.0756623661      -29.3875426697       12.9691322464  MEMB      65              0.0000000000
      9378        93  DOPC      H3R           -28.2209455929      -28.8098101683       12.0313483602  MEMB      65              0.0000000000
      9379        93  DOPC      H3S           -29.0161270835      -29.9241507852       13.2179267884  MEMB      65              0.0000000000
      9380        93  DOPC      C24           -27.0189622000      -30.4483341203       12.5314473298  MEMB      65              0.0000000000
      9381        93  DOPC      H4R           -26.8860998500      -31.2565256885       13.2821103480  MEMB      65              0.0000000000
      9382        93  DOPC      H4S           -26.0783736546      -29.8721600097       12.3986392108  MEMB      65              0.0000000000
      9383        93  DOPC      C25           -27.2571241027      -31.2500424488       11.1768300298  MEMB      65              0.0000000000
      9384        93  DOPC      H5R           -26.2794933882      -31.7530206847       11.0169168999  MEMB      65              0.0000000000
      9385        93  DOPC      H5S           -27.3257495315      -30.5352182931       10.3291051304  MEMB      65              0.0000000000
      9386        93  DOPC      C26           -28.5088188530      -32.1546286408       11.1368206984  MEMB      65              0.0000000000
      9387        93  DOPC      H6R           -29.4172817100      -31.5517433642       11.3502339405  MEMB      65              0.0000000000
      9388        93  DOPC      H6S           -28.4036731862      -32.9573182278       11.8977115731  MEMB      65              0.0000000000
      9389        93  DOPC      C27           -28.7105717275      -32.9731236515        9.8016599123  MEMB      65              0.0000000000
      9390        93  DOPC      H7R           -29.5441999744      -33.6888431303        9.9663732548  MEMB      65              0.0000000000
      9391        93  DOPC      H7S           -27.8104762552      -33.5854092801        9.5797256960  MEMB      65              0.0000000000
      9392        93  DOPC      C28           -29.2140371276      -32.1607505977        8.5794130664  MEMB      65              0.0000000000
      9393        93  DOPC      H8R           -29.8579542309      -31.3789940449        9.0360847108  MEMB      65              0.0000000000
      9394        93  DOPC      H8S           -29.8466277142      -32.8290962138        7.9569474385  MEMB      65              0.0000000000
      9395        93  DOPC      C29           -28.0085035055      -31.5487447698        7.8169607424  MEMB      65              0.0000000000
      9396        93  DOPC      H9R           -27.3623033686      -32.2394352130        7.2553819423  MEMB      65              0.0000000000
      9397        93  DOPC      C210          -27.8413137385      -30.1719048259        7.5790725540  MEMB      65              0.0000000000
      9398        93  DOPC      H10R          -26.9068934845      -29.8317130754        7.1088295543  MEMB      65              0.0000000000
      9399        93  DOPC      C211          -28.7210304010      -29.0323982523        8.0109675498  MEMB      65              0.0000000000
      9400        93  DOPC      H11R          -28.1934787843      -28.1056735037        8.3227217588  MEMB      65              0.0000000000
      9401        93  DOPC      H11S          -29.4075177720      -29.2431833008        8.8586856052  MEMB      65              0.0000000000
      9402        93  DOPC      C212          -29.6212476534      -28.5079081859        6.8114800722  MEMB      65              0.0000000000
      9403        93  DOPC      H12R          -29.1548763743      -28.3457256190        5.8162338716  MEMB      65              0.0000000000
      9404        93  DOPC      H12S          -29.9318926691      -27.5302779803        7.2381644590  MEMB      65              0.0000000000
      9405        93  DOPC      C213          -30.9109444238      -29.3315081294        6.5363395523  MEMB      65              0.0000000000
      9406        93  DOPC      H13R          -31.3999558384      -29.5355527401        7.5128413418  MEMB      65              0.0000000000
      9407        93  DOPC      H13S          -30.6729729028      -30.3559636760        6.1783157093  MEMB      65              0.0000000000
      9408        93  DOPC      C214          -31.9414926822      -28.7514664111        5.5451994251  MEMB      65              0.0000000000
      9409        93  DOPC      H14R          -31.7575365721      -27.6745566906        5.3433413845  MEMB      65              0.0000000000
      9410        93  DOPC      H14S          -33.0042400426      -28.8147241046        5.8628270768  MEMB      65              0.0000000000
      9411        93  DOPC      C215          -31.9753784723      -29.5791784240        4.2671257646  MEMB      65              0.0000000000
      9412        93  DOPC      H15R          -32.2912235639      -30.5414508085        4.7238472746  MEMB      65              0.0000000000
      9413        93  DOPC      H15S          -30.9218184067      -29.6917834154        3.9329813205  MEMB      65              0.0000000000
      9414        93  DOPC      C216          -32.9795844812      -29.1224089548        3.2457976898  MEMB      65              0.0000000000
      9415        93  DOPC      H16R          -32.7107191756      -28.1058310241        2.8871870943  MEMB      65              0.0000000000
      9416        93  DOPC      H16S          -33.9407316683      -29.0874941947        3.8019426103  MEMB      65              0.0000000000
      9417        93  DOPC      C217          -33.0355797563      -29.9896239178        1.9880281234  MEMB      65              0.0000000000
      9418        93  DOPC      H17R          -33.9564534404      -29.6872339214        1.4450064659  MEMB      65              0.0000000000
      9419        93  DOPC      H17S          -33.1406416150      -31.0258730642        2.3746430944  MEMB      65              0.0000000000
      9420        93  DOPC      C218          -31.8054102390      -29.9603420879        1.0290306611  MEMB      65              0.0000000000
      9421        93  DOPC      H18R          -31.7254782206      -28.9102901654        0.6750210496  MEMB      65              0.0000000000
      9422        93  DOPC      H18S          -31.9616332169      -30.5750590357        0.1168692204  MEMB      65              0.0000000000
      9423        93  DOPC      H18T          -30.9418017697      -30.3436303424        1.6134892555  MEMB      65              0.0000000000
      9424        93  DOPC      C33           -32.3368714335      -33.3114117940       13.8035489471  MEMB      65              0.0000000000
      9425        93  DOPC      H3X           -32.1362963649      -32.4815765291       13.0925889751  MEMB      65              0.0000000000
      9426        93  DOPC      H3Y           -33.4426459876      -33.3523518495       13.9030854477  MEMB      65              0.0000000000
      9427        93  DOPC      C34           -32.0281075484      -34.7164655472       13.1854377624  MEMB      65              0.0000000000
      9428        93  DOPC      H4X           -32.3717377353      -35.4059164571       13.9859977114  MEMB      65              0.0000000000
      9429        93  DOPC      H4Y           -30.9422421430      -34.8324484487       12.9810719353  MEMB      65              0.0000000000
      9430        93  DOPC      C35           -32.9427907277      -35.1600673493       11.9785922542  MEMB      65              0.0000000000
      9431        93  DOPC      H5X           -34.0375442678      -35.1838111045       12.1664004729  MEMB      65              0.0000000000
      9432        93  DOPC      H5Y           -32.6373588982      -36.2257793931       11.9058579212  MEMB      65              0.0000000000
      9433        93  DOPC      C36           -32.6311033622      -34.5251295447       10.5680928333  MEMB      65              0.0000000000
      9434        93  DOPC      H6X           -32.9587552426      -33.4635487871       10.5647226583  MEMB      65              0.0000000000
      9435        93  DOPC      H6Y           -31.5315036948      -34.6680053413       10.4988975407  MEMB      65              0.0000000000
      9436        93  DOPC      C37           -33.3624497342      -35.2915244499        9.5035848945  MEMB      65              0.0000000000
      9437        93  DOPC      H7X           -33.2275326804      -36.3686260098        9.7401654834  MEMB      65              0.0000000000
      9438        93  DOPC      H7Y           -34.4322111417      -34.9942730742        9.4639229722  MEMB      65              0.0000000000
      9439        93  DOPC      C38           -32.6684260054      -35.1527761896        8.0986312302  MEMB      65              0.0000000000
      9440        93  DOPC      H8X           -33.0722930858      -35.7706847314        7.2683297172  MEMB      65              0.0000000000
      9441        93  DOPC      H8Y           -31.6337084025      -35.5338067181        8.2346320895  MEMB      65              0.0000000000
      9442        93  DOPC      C39           -32.6457842789      -33.7218964138        7.6625449775  MEMB      65              0.0000000000
      9443        93  DOPC      H9X           -32.7580219999      -32.9877394782        8.4739731813  MEMB      65              0.0000000000
      9444        93  DOPC      C310          -32.5473345943      -33.2164932655        6.3792689990  MEMB      65              0.0000000000
      9445        93  DOPC      H10X          -32.4589618162      -32.1256867133        6.2682225082  MEMB      65              0.0000000000
      9446        93  DOPC      C311          -32.3638381857      -34.0102953247        5.1446895802  MEMB      65              0.0000000000
      9447        93  DOPC      H11X          -32.7504357284      -33.3889943588        4.3087180834  MEMB      65              0.0000000000
      9448        93  DOPC      H11Y          -32.9803745758      -34.9275615637        5.0314336874  MEMB      65              0.0000000000
      9449        93  DOPC      C312          -30.9457479085      -34.3974193095        4.7426168636  MEMB      65              0.0000000000
      9450        93  DOPC      H12X          -30.1798097341      -34.6410770304        5.5096175898  MEMB      65              0.0000000000
      9451        93  DOPC      H12Y          -30.5075274256      -33.4671416570        4.3220603797  MEMB      65              0.0000000000
      9452        93  DOPC      C313          -30.8007780779      -35.4736009368        3.6555678961  MEMB      65              0.0000000000
      9453        93  DOPC      H13X          -29.7337330645      -35.5661959886        3.3603359167  MEMB      65              0.0000000000
      9454        93  DOPC      H13Y          -31.2111933355      -36.4209741333        4.0658899314  MEMB      65              0.0000000000
      9455        93  DOPC      C314          -31.4438693491      -34.9863660860        2.3236152733  MEMB      65              0.0000000000
      9456        93  DOPC      H14X          -31.3726100241      -35.9022949354        1.6988618117  MEMB      65              0.0000000000
      9457        93  DOPC      H14Y          -32.5281458935      -34.7510680935        2.3810634673  MEMB      65              0.0000000000
      9458        93  DOPC      C315          -30.6670961988      -33.9143083193        1.6016884161  MEMB      65              0.0000000000
      9459        93  DOPC      H15X          -30.0678134801      -33.1808523008        2.1823980593  MEMB      65              0.0000000000
      9460        93  DOPC      H15Y          -31.4230544118      -33.3972253547        0.9728212423  MEMB      65              0.0000000000
      9461        93  DOPC      C316          -29.6043222301      -34.5596984236        0.7249380678  MEMB      65              0.0000000000
      9462        93  DOPC      H16X          -28.6918201429      -34.7326305042        1.3346550558  MEMB      65              0.0000000000
      9463        93  DOPC      H16Y          -29.9389754436      -35.5412371657        0.3263026183  MEMB      65              0.0000000000
      9464        93  DOPC      C317          -29.3149443938      -33.5161520118       -0.3978229508  MEMB      65              0.0000000000
      9465        93  DOPC      H17X          -30.2689736279      -33.4010718155       -0.9554118544  MEMB      65              0.0000000000
      9466        93  DOPC      H17Y          -28.9913569634      -32.5186951643       -0.0308202458  MEMB      65              0.0000000000
      9467        93  DOPC      C318          -28.1727222387      -33.9752718321       -1.3137535750  MEMB      65              0.0000000000
      9468        93  DOPC      H18X          -27.8304221815      -33.0226056038       -1.7715515548  MEMB      65              0.0000000000
      9469        93  DOPC      H18Y          -27.3701308122      -34.3841333651       -0.6633691254  MEMB      65              0.0000000000
      9470        93  DOPC      H18Z          -28.5087725117      -34.7077272511       -2.0785411418  MEMB      65              0.0000000000
      9471        94  DOPC      N              29.4929406468      -35.7426662203       18.8370198568  MEMB      66              0.0000000000
      9472        94  DOPC      C12            28.7778054588      -34.4149183242       18.7449727445  MEMB      66              0.0000000000
      9473        94  DOPC      H12A           27.9202189647      -34.4929075613       19.3967880158  MEMB      66              0.0000000000
      9474        94  DOPC      H12B           28.3943009482      -34.3050809719       17.7413493163  MEMB      66              0.0000000000
      9475        94  DOPC      C13            29.8403422496      -36.0124011834       20.2790313998  MEMB      66              0.0000000000
      9476        94  DOPC      H13A           28.9051251450      -36.2507217025       20.7637707199  MEMB      66              0.0000000000
      9477        94  DOPC      H13B           30.3404867016      -36.9635988750       20.3861679858  MEMB      66              0.0000000000
      9478        94  DOPC      H13C           30.4531759137      -35.2286837689       20.6992957821  MEMB      66              0.0000000000
      9479        94  DOPC      C14            30.7252486470      -35.6516576500       17.9401724524  MEMB      66              0.0000000000
      9480        94  DOPC      H14A           31.4183841114      -35.0322721441       18.4900130918  MEMB      66              0.0000000000
      9481        94  DOPC      H14B           31.0723154214      -36.6720153691       17.8707834190  MEMB      66              0.0000000000
      9482        94  DOPC      H14C           30.4476636512      -35.2601342606       16.9726724649  MEMB      66              0.0000000000
      9483        94  DOPC      C15            28.4731987621      -36.7231657900       18.2898843781  MEMB      66              0.0000000000
      9484        94  DOPC      H15A           28.2392687892      -36.4302054023       17.2770413481  MEMB      66              0.0000000000
      9485        94  DOPC      H15B           27.5720574106      -36.6759620892       18.8832780672  MEMB      66              0.0000000000
      9486        94  DOPC      H15C           29.0044459353      -37.6570455259       18.3996349442  MEMB      66              0.0000000000
      9487        94  DOPC      C11            29.4794933081      -33.1439701622       19.3304260086  MEMB      66              0.0000000000
      9488        94  DOPC      H11A           28.6887341681      -32.3668984107       19.2584508254  MEMB      66              0.0000000000
      9489        94  DOPC      H11B           29.7704327863      -33.2929541426       20.3922541897  MEMB      66              0.0000000000
      9490        94  DOPC      P              32.0460052917      -32.6743589330       19.2169943692  MEMB      66              0.0000000000
      9491        94  DOPC      O13            32.1759574780      -33.6586889414       20.3015456857  MEMB      66              0.0000000000
      9492        94  DOPC      O14            32.3673027629      -31.2972196071       19.5669387793  MEMB      66              0.0000000000
      9493        94  DOPC      O12            30.5940835184      -32.7767019309       18.5586284706  MEMB      66              0.0000000000
      9494        94  DOPC      O11            32.8224736495      -33.2003449050       17.9343858543  MEMB      66              0.0000000000
      9495        94  DOPC      C1             32.6456590087      -32.4162071512       16.7925863273  MEMB      66              0.0000000000
      9496        94  DOPC      HA             32.9271571966      -31.3533767840       16.9521833812  MEMB      66              0.0000000000
      9497        94  DOPC      HB             31.5696134292      -32.4331612205       16.5166161906  MEMB      66              0.0000000000
      9498        94  DOPC      C2             33.4753225917      -32.9628197154       15.6251953173  MEMB      66              0.0000000000
      9499        94  DOPC      HS             33.2515432849      -32.4212856271       14.6812752970  MEMB      66              0.0000000000
      9500        94  DOPC      O21            33.1612176339      -34.3175352240       15.4355963244  MEMB      66              0.0000000000
      9501        94  DOPC      C21            32.0980731149      -34.5504288385       14.6689907184  MEMB      66              0.0000000000
      9502        94  DOPC      O22            31.5640506412      -33.7512268808       13.9151502505  MEMB      66              0.0000000000
      9503        94  DOPC      C22            31.7872750646      -36.0142501726       14.8143371653  MEMB      66              0.0000000000
      9504        94  DOPC      H2R            31.0077576502      -36.1855222811       15.5872147866  MEMB      66              0.0000000000
      9505        94  DOPC      H2S            32.7305160728      -36.5417438936       15.0719568987  MEMB      66              0.0000000000
      9506        94  DOPC      C3             35.0126399172      -32.9150267434       15.9158427637  MEMB      66              0.0000000000
      9507        94  DOPC      HX             35.1633728473      -33.4401543976       16.8832316730  MEMB      66              0.0000000000
      9508        94  DOPC      HY             35.3920306856      -31.8756462929       16.0162035583  MEMB      66              0.0000000000
      9509        94  DOPC      O31            35.8383493026      -33.6506703387       14.9664715228  MEMB      66              0.0000000000
      9510        94  DOPC      C31            36.1807505282      -32.9708927185       13.7955095433  MEMB      66              0.0000000000
      9511        94  DOPC      O32            36.1507793423      -31.8134280541       13.6574340602  MEMB      66              0.0000000000
      9512        94  DOPC      C32            36.5723221506      -34.0255651579       12.7204920843  MEMB      66              0.0000000000
      9513        94  DOPC      H2X            37.5495454810      -34.4864930730       12.9791439800  MEMB      66              0.0000000000
      9514        94  DOPC      H2Y            35.8639029682      -34.8752038628       12.8233386977  MEMB      66              0.0000000000
      9515        94  DOPC      C23            31.0906552747      -36.5320940503       13.5453043962  MEMB      66              0.0000000000
      9516        94  DOPC      H3R            30.3370136875      -35.7575390572       13.2876032181  MEMB      66              0.0000000000
      9517        94  DOPC      H3S            30.5610301131      -37.4223837436       13.9468048863  MEMB      66              0.0000000000
      9518        94  DOPC      C24            32.0443878584      -36.7400809637       12.4132841254  MEMB      66              0.0000000000
      9519        94  DOPC      H4R            32.8788392891      -37.4045681409       12.7238780368  MEMB      66              0.0000000000
      9520        94  DOPC      H4S            32.4971298425      -35.7851012661       12.0707062835  MEMB      66              0.0000000000
      9521        94  DOPC      C25            31.3765605639      -37.3513195696       11.1663636261  MEMB      66              0.0000000000
      9522        94  DOPC      H5R            30.4773437238      -37.9590772884       11.4037689994  MEMB      66              0.0000000000
      9523        94  DOPC      H5S            32.0394186919      -37.9103487531       10.4717948213  MEMB      66              0.0000000000
      9524        94  DOPC      C26            30.8128342737      -36.2144171443       10.3048411060  MEMB      66              0.0000000000
      9525        94  DOPC      H6R            31.6669534098      -35.5540780120       10.0426317017  MEMB      66              0.0000000000
      9526        94  DOPC      H6S            30.1532682509      -35.5550595813       10.9086132257  MEMB      66              0.0000000000
      9527        94  DOPC      C27            30.1356547620      -36.6714456851        9.0312379955  MEMB      66              0.0000000000
      9528        94  DOPC      H7R            29.3528778122      -37.4023616960        9.3267778931  MEMB      66              0.0000000000
      9529        94  DOPC      H7S            30.8177974772      -37.2485218362        8.3709461341  MEMB      66              0.0000000000
      9530        94  DOPC      C28            29.3453565941      -35.6208034356        8.2307076963  MEMB      66              0.0000000000
      9531        94  DOPC      H8R            28.5889668240      -35.0516758527        8.8123336447  MEMB      66              0.0000000000
      9532        94  DOPC      H8S            28.8595611979      -36.2334679383        7.4414255374  MEMB      66              0.0000000000
      9533        94  DOPC      C29            30.2789321606      -34.6701460555        7.5081523397  MEMB      66              0.0000000000
      9534        94  DOPC      H9R            30.8292581699      -34.0113441561        8.1959904434  MEMB      66              0.0000000000
      9535        94  DOPC      C210           30.6389234100      -34.6102262758        6.1938128630  MEMB      66              0.0000000000
      9536        94  DOPC      H10R           31.4527050559      -33.9605731739        5.8392561254  MEMB      66              0.0000000000
      9537        94  DOPC      C211           30.2135192618      -35.5575187333        5.0904355872  MEMB      66              0.0000000000
      9538        94  DOPC      H11R           29.5212407988      -34.9981065486        4.4255071940  MEMB      66              0.0000000000
      9539        94  DOPC      H11S           29.6946533606      -36.4881618308        5.4050822059  MEMB      66              0.0000000000
      9540        94  DOPC      C212           31.4632149629      -35.9371879047        4.3064874489  MEMB      66              0.0000000000
      9541        94  DOPC      H12R           31.2817553959      -36.8617280844        3.7177440459  MEMB      66              0.0000000000
      9542        94  DOPC      H12S           32.2206364131      -36.2390035101        5.0611665243  MEMB      66              0.0000000000
      9543        94  DOPC      C213           32.0977224380      -34.9077331576        3.4102957178  MEMB      66              0.0000000000
      9544        94  DOPC      H13R           32.5762210198      -34.0745986252        3.9681906505  MEMB      66              0.0000000000
      9545        94  DOPC      H13S           31.1807141473      -34.4911699597        2.9413698874  MEMB      66              0.0000000000
      9546        94  DOPC      C214           32.8209845369      -35.3747580054        2.2051176129  MEMB      66              0.0000000000
      9547        94  DOPC      H14R           32.9950359785      -34.5378054206        1.4955152242  MEMB      66              0.0000000000
      9548        94  DOPC      H14S           32.1208676196      -36.0884269299        1.7205220375  MEMB      66              0.0000000000
      9549        94  DOPC      C215           34.2762589023      -35.9493896340        2.5458348268  MEMB      66              0.0000000000
      9550        94  DOPC      H15R           34.2402300490      -36.6820010100        3.3802827999  MEMB      66              0.0000000000
      9551        94  DOPC      H15S           34.8662916634      -35.0499466299        2.8236559440  MEMB      66              0.0000000000
      9552        94  DOPC      C216           34.9770554891      -36.7813983617        1.4530941497  MEMB      66              0.0000000000
      9553        94  DOPC      H16R           34.9621316474      -36.2352194111        0.4857327772  MEMB      66              0.0000000000
      9554        94  DOPC      H16S           34.4223360871      -37.7380611933        1.3463060042  MEMB      66              0.0000000000
      9555        94  DOPC      C217           36.4820505606      -37.0424602383        1.7043722550  MEMB      66              0.0000000000
      9556        94  DOPC      H17R           36.8029405537      -38.0008942821        1.2431196096  MEMB      66              0.0000000000
      9557        94  DOPC      H17S           36.5081092091      -37.2152955577        2.8015371188  MEMB      66              0.0000000000
      9558        94  DOPC      C218           37.5133200910      -35.9591711296        1.1711359929  MEMB      66              0.0000000000
      9559        94  DOPC      H18R           37.5879898487      -35.7498186946        0.0825962310  MEMB      66              0.0000000000
      9560        94  DOPC      H18S           38.4857316186      -36.2827165378        1.6001526644  MEMB      66              0.0000000000
      9561        94  DOPC      H18T           37.2576470999      -34.9632360619        1.5919267237  MEMB      66              0.0000000000
      9562        94  DOPC      C33            36.7838763068      -33.3837393809       11.4210870002  MEMB      66              0.0000000000
      9563        94  DOPC      H3X            37.4735679599      -33.9427796958       10.7531643324  MEMB      66              0.0000000000
      9564        94  DOPC      H3Y            37.3855047061      -32.4530154065       11.4992997398  MEMB      66              0.0000000000
      9565        94  DOPC      C34            35.4584897167      -33.0544299431       10.6692621076  MEMB      66              0.0000000000
      9566        94  DOPC      H4X            35.8411633343      -32.8564668210        9.6452052402  MEMB      66              0.0000000000
      9567        94  DOPC      H4Y            35.1586885018      -32.0549764873       11.0507497276  MEMB      66              0.0000000000
      9568        94  DOPC      C35            34.2948394814      -34.1072647437       10.6152393228  MEMB      66              0.0000000000
      9569        94  DOPC      H5X            33.4490111091      -33.7288435090       10.0023018098  MEMB      66              0.0000000000
      9570        94  DOPC      H5Y            33.8839724992      -34.2299082067       11.6401632361  MEMB      66              0.0000000000
      9571        94  DOPC      C36            34.7354507862      -35.5379482207       10.0976615791  MEMB      66              0.0000000000
      9572        94  DOPC      H6X            35.5245713708      -35.8575749866       10.8114181196  MEMB      66              0.0000000000
      9573        94  DOPC      H6Y            33.7953440917      -36.1229675125       10.1886169581  MEMB      66              0.0000000000
      9574        94  DOPC      C37            35.3388623321      -35.4838720036        8.6980629221  MEMB      66              0.0000000000
      9575        94  DOPC      H7X            36.2296552743      -34.8207397598        8.6654398349  MEMB      66              0.0000000000
      9576        94  DOPC      H7Y            35.7240690930      -36.5026142804        8.4787439358  MEMB      66              0.0000000000
      9577        94  DOPC      C38            34.3977797292      -35.0160548028        7.5122331882  MEMB      66              0.0000000000
      9578        94  DOPC      H8X            33.9254378541      -34.0388902658        7.7496435032  MEMB      66              0.0000000000
      9579        94  DOPC      H8Y            33.6317201539      -35.8049841872        7.3539163991  MEMB      66              0.0000000000
      9580        94  DOPC      C39            35.2955000315      -35.0506318634        6.3238559677  MEMB      66              0.0000000000
      9581        94  DOPC      H9X            35.5555089231      -36.0616462017        5.9770921387  MEMB      66              0.0000000000
      9582        94  DOPC      C310           35.8790147086      -33.9309959164        5.6860267175  MEMB      66              0.0000000000
      9583        94  DOPC      H10X           36.6196693526      -34.0809950614        4.8866953558  MEMB      66              0.0000000000
      9584        94  DOPC      C311           35.5624968196      -32.5479269480        6.1394168514  MEMB      66              0.0000000000
      9585        94  DOPC      H11X           36.3794047711      -31.8329613011        5.9031836731  MEMB      66              0.0000000000
      9586        94  DOPC      H11Y           35.5960065312      -32.4435072462        7.2449911101  MEMB      66              0.0000000000
      9587        94  DOPC      C312           34.1273888302      -31.9518717373        5.7109132994  MEMB      66              0.0000000000
      9588        94  DOPC      H12X           33.9008701451      -31.2442549862        6.5369204168  MEMB      66              0.0000000000
      9589        94  DOPC      H12Y           33.4154279258      -32.8038756742        5.7499247121  MEMB      66              0.0000000000
      9590        94  DOPC      C313           34.1191631447      -31.3212340569        4.3010270043  MEMB      66              0.0000000000
      9591        94  DOPC      H13X           34.9757287076      -30.6218101431        4.1941497323  MEMB      66              0.0000000000
      9592        94  DOPC      H13Y           34.3181455276      -32.2094651383        3.6640242364  MEMB      66              0.0000000000
      9593        94  DOPC      C314           32.8788332542      -30.5613206328        3.8089766826  MEMB      66              0.0000000000
      9594        94  DOPC      H14X           32.1049403610      -31.1814287931        4.3098523940  MEMB      66              0.0000000000
      9595        94  DOPC      H14Y           32.9564004873      -29.5461464988        4.2536401535  MEMB      66              0.0000000000
      9596        94  DOPC      C315           32.5014369025      -30.7989009394        2.3330050997  MEMB      66              0.0000000000
      9597        94  DOPC      H15X           31.4634798687      -30.4442636042        2.1563757446  MEMB      66              0.0000000000
      9598        94  DOPC      H15Y           32.5960466355      -31.8722597330        2.0623195650  MEMB      66              0.0000000000
      9599        94  DOPC      C316           33.4811068063      -30.1794819194        1.2593979898  MEMB      66              0.0000000000
      9600        94  DOPC      H16X           33.2169537252      -29.1040109269        1.3483124725  MEMB      66              0.0000000000
      9601        94  DOPC      H16Y           34.5014340787      -30.3535349885        1.6630801958  MEMB      66              0.0000000000
      9602        94  DOPC      C317           33.3886088037      -30.7446945903       -0.1682664576  MEMB      66              0.0000000000
      9603        94  DOPC      H17X           32.2901911723      -30.7166901602       -0.3326294926  MEMB      66              0.0000000000
      9604        94  DOPC      H17Y           33.8896228846      -30.0125409644       -0.8370406106  MEMB      66              0.0000000000
      9605        94  DOPC      C318           33.9184266261      -32.0988843947       -0.5371486164  MEMB      66              0.0000000000
      9606        94  DOPC      H18X           34.9785194075      -32.2124210676       -0.2246847664  MEMB      66              0.0000000000
      9607        94  DOPC      H18Y           33.3239330917      -32.9199076339       -0.0823742536  MEMB      66              0.0000000000
      9608        94  DOPC      H18Z           33.8844184970      -32.2571664734       -1.6362887270  MEMB      66              0.0000000000
      9609        95  DOPC      N              -8.1784351956       11.2773256827      -20.7235139301  MEMB      67              0.0000000000
      9610        95  DOPC      C12            -8.6527834665       10.6412139046      -19.4007276532  MEMB      67              0.0000000000
      9611        95  DOPC      H12A           -9.7045777265       10.5428590491      -19.6253499971  MEMB      67              0.0000000000
      9612        95  DOPC      H12B           -8.5490917277       11.4778661704      -18.7257010263  MEMB      67              0.0000000000
      9613        95  DOPC      C13            -9.0475363372       12.4486254746      -20.9949410916  MEMB      67              0.0000000000
      9614        95  DOPC      H13A           -8.9180804797       13.1080843603      -20.1495092018  MEMB      67              0.0000000000
      9615        95  DOPC      H13B           -8.7010531977       12.9615731160      -21.8799462610  MEMB      67              0.0000000000
      9616        95  DOPC      H13C          -10.0507363343       12.1446788604      -21.2549529019  MEMB      67              0.0000000000
      9617        95  DOPC      C14            -8.1921912775       10.1960008421      -21.8475319495  MEMB      67              0.0000000000
      9618        95  DOPC      H14A           -7.5295273200        9.3766606675      -21.6109771291  MEMB      67              0.0000000000
      9619        95  DOPC      H14B           -9.2001236121        9.8862963305      -22.0811027256  MEMB      67              0.0000000000
      9620        95  DOPC      H14C           -7.7592256042       10.6572286221      -22.7228661831  MEMB      67              0.0000000000
      9621        95  DOPC      C15            -6.7281538975       11.8256633260      -20.6099048676  MEMB      67              0.0000000000
      9622        95  DOPC      H15A           -6.5652063280       12.5065822666      -19.7875925677  MEMB      67              0.0000000000
      9623        95  DOPC      H15B           -6.4251078582       12.4583825337      -21.4310197583  MEMB      67              0.0000000000
      9624        95  DOPC      H15C           -5.9767045007       11.0567062349      -20.5077843735  MEMB      67              0.0000000000
      9625        95  DOPC      C11            -7.9970299493        9.4595459661      -18.8694651070  MEMB      67              0.0000000000
      9626        95  DOPC      H11A           -8.6539380884        9.1700429404      -18.0215377881  MEMB      67              0.0000000000
      9627        95  DOPC      H11B           -7.8835271768        8.6310040439      -19.6008721755  MEMB      67              0.0000000000
      9628        95  DOPC      P              -5.8769219516        8.9123274888      -17.3751573125  MEMB      67              0.0000000000
      9629        95  DOPC      O13            -4.4305272874        9.2318764173      -17.3638999686  MEMB      67              0.0000000000
      9630        95  DOPC      O14            -6.2635622876        7.5156614584      -17.4592998578  MEMB      67              0.0000000000
      9631        95  DOPC      O12            -6.6723665658        9.8259448451      -18.4033604006  MEMB      67              0.0000000000
      9632        95  DOPC      O11            -6.4851429213        9.4185171149      -15.9521978619  MEMB      67              0.0000000000
      9633        95  DOPC      C1             -6.0183518095       10.7271862673      -15.4886046072  MEMB      67              0.0000000000
      9634        95  DOPC      HA             -5.8028574848       11.3897319294      -16.3540043308  MEMB      67              0.0000000000
      9635        95  DOPC      HB             -5.0752933736       10.6298809007      -14.9093867261  MEMB      67              0.0000000000
      9636        95  DOPC      C2             -7.0454083749       11.3269571025      -14.5109640106  MEMB      67              0.0000000000
      9637        95  DOPC      HS             -6.5664422872       12.2107628337      -14.0378887992  MEMB      67              0.0000000000
      9638        95  DOPC      O21            -7.4877527768       10.4225661086      -13.4877765777  MEMB      67              0.0000000000
      9639        95  DOPC      C21            -6.6314231314       10.0312259172      -12.5585653638  MEMB      67              0.0000000000
      9640        95  DOPC      O22            -5.6103055872       10.5811790546      -12.2575827895  MEMB      67              0.0000000000
      9641        95  DOPC      C22            -7.0783919865        8.6880132460      -12.0105500996  MEMB      67              0.0000000000
      9642        95  DOPC      H2R            -6.8401662059        7.9217693551      -12.7789510410  MEMB      67              0.0000000000
      9643        95  DOPC      H2S            -8.1858939571        8.7525630993      -11.9506040409  MEMB      67              0.0000000000
      9644        95  DOPC      C3             -8.3002794473       11.7445392711      -15.3375069617  MEMB      67              0.0000000000
      9645        95  DOPC      HX             -8.7749411949       10.8369366430      -15.7679425480  MEMB      67              0.0000000000
      9646        95  DOPC      HY             -7.8547674801       12.4249597734      -16.0943876330  MEMB      67              0.0000000000
      9647        95  DOPC      O31            -9.2053094194       12.4067740930      -14.4436356435  MEMB      67              0.0000000000
      9648        95  DOPC      C31            -9.5244055414       13.6508048248      -14.7781382046  MEMB      67              0.0000000000
      9649        95  DOPC      O32            -9.1940062889       14.2372192761      -15.7749827747  MEMB      67              0.0000000000
      9650        95  DOPC      C32           -10.4295218153       14.2570919206      -13.7074822588  MEMB      67              0.0000000000
      9651        95  DOPC      H2X           -10.6055728012       15.3443395855      -13.8531515892  MEMB      67              0.0000000000
      9652        95  DOPC      H2Y           -11.3905449450       13.7047737319      -13.7829808188  MEMB      67              0.0000000000
      9653        95  DOPC      C23            -6.5560668625        8.2958287865      -10.5789697743  MEMB      67              0.0000000000
      9654        95  DOPC      H3R            -6.7378551877        9.0578428464       -9.7911828600  MEMB      67              0.0000000000
      9655        95  DOPC      H3S            -5.4481911816        8.2228240060      -10.5389377750  MEMB      67              0.0000000000
      9656        95  DOPC      C24            -6.9809663111        6.8877163013      -10.1606018147  MEMB      67              0.0000000000
      9657        95  DOPC      H4R            -6.6110761857        6.7000630809       -9.1299282128  MEMB      67              0.0000000000
      9658        95  DOPC      H4S            -6.4630135880        6.0581306585      -10.6877018387  MEMB      67              0.0000000000
      9659        95  DOPC      C25            -8.5211228212        6.6312697001      -10.1033664412  MEMB      67              0.0000000000
      9660        95  DOPC      H5R            -8.6518128583        5.7582086329       -9.4288253801  MEMB      67              0.0000000000
      9661        95  DOPC      H5S            -8.7246507708        6.2908764730      -11.1411673006  MEMB      67              0.0000000000
      9662        95  DOPC      C26            -9.4889377435        7.7408246070       -9.6140296608  MEMB      67              0.0000000000
      9663        95  DOPC      H6R            -9.8489816325        8.4213194355      -10.4150397180  MEMB      67              0.0000000000
      9664        95  DOPC      H6S            -8.9186346793        8.3720567087       -8.8994521541  MEMB      67              0.0000000000
      9665        95  DOPC      C27           -10.7371785013        7.1800948657       -8.9937454716  MEMB      67              0.0000000000
      9666        95  DOPC      H7R           -10.6169313841        6.2148718717       -8.4568966749  MEMB      67              0.0000000000
      9667        95  DOPC      H7S           -11.3375793604        6.9383426678       -9.8967375415  MEMB      67              0.0000000000
      9668        95  DOPC      C28           -11.6357701966        8.2147245820       -8.2356750123  MEMB      67              0.0000000000
      9669        95  DOPC      H8R           -12.5026512260        7.5392649622       -8.0726012135  MEMB      67              0.0000000000
      9670        95  DOPC      H8S           -11.9937061683        9.0506718178       -8.8739498773  MEMB      67              0.0000000000
      9671        95  DOPC      C29           -11.1578841426        8.7804870343       -6.9183674117  MEMB      67              0.0000000000
      9672        95  DOPC      H9R           -11.1922309040        8.0907675321       -6.0621499351  MEMB      67              0.0000000000
      9673        95  DOPC      C210          -10.7929819407        9.9974266971       -6.5836243146  MEMB      67              0.0000000000
      9674        95  DOPC      H10R          -10.4162676050       10.1427731707       -5.5604135749  MEMB      67              0.0000000000
      9675        95  DOPC      C211          -10.7026434132       11.2300409530       -7.4816399819  MEMB      67              0.0000000000
      9676        95  DOPC      H11R          -11.6032574568       11.8621851910       -7.3279870183  MEMB      67              0.0000000000
      9677        95  DOPC      H11S          -10.4782980021       11.0443785095       -8.5537959728  MEMB      67              0.0000000000
      9678        95  DOPC      C212           -9.5655879304       12.1358153796       -7.0259334496  MEMB      67              0.0000000000
      9679        95  DOPC      H12R           -9.5607874523       13.0465759909       -7.6621826587  MEMB      67              0.0000000000
      9680        95  DOPC      H12S           -8.5635808934       11.6825605860       -7.1836146390  MEMB      67              0.0000000000
      9681        95  DOPC      C213           -9.7026522577       12.6921301106       -5.5973336814  MEMB      67              0.0000000000
      9682        95  DOPC      H13R           -9.6061544871       11.8754631049       -4.8502964293  MEMB      67              0.0000000000
      9683        95  DOPC      H13S          -10.7510041480       13.0156542966       -5.4223729167  MEMB      67              0.0000000000
      9684        95  DOPC      C214           -8.9136311990       13.9789477793       -5.3943224752  MEMB      67              0.0000000000
      9685        95  DOPC      H14R           -9.2942465012       14.6202625039       -6.2178327156  MEMB      67              0.0000000000
      9686        95  DOPC      H14S           -7.8189866898       13.8465193254       -5.5304728048  MEMB      67              0.0000000000
      9687        95  DOPC      C215           -9.3899940783       14.8081159541       -4.1922463543  MEMB      67              0.0000000000
      9688        95  DOPC      H15R          -10.4595131281       15.0561958504       -4.3622650438  MEMB      67              0.0000000000
      9689        95  DOPC      H15S           -8.7705699045       15.7265847095       -4.1082848051  MEMB      67              0.0000000000
      9690        95  DOPC      C216           -9.1604393404       14.2238741608       -2.7815249149  MEMB      67              0.0000000000
      9691        95  DOPC      H16R           -9.7754502852       13.2996700926       -2.7376013826  MEMB      67              0.0000000000
      9692        95  DOPC      H16S           -9.6309237201       14.8695021799       -2.0094315718  MEMB      67              0.0000000000
      9693        95  DOPC      C217           -7.6684587615       14.0312000904       -2.3878604582  MEMB      67              0.0000000000
      9694        95  DOPC      H17R           -7.2140465992       14.9787108254       -2.7484913200  MEMB      67              0.0000000000
      9695        95  DOPC      H17S           -7.3742157427       13.1177647661       -2.9476626650  MEMB      67              0.0000000000
      9696        95  DOPC      C218           -7.4928084457       13.9010299880       -0.8912041597  MEMB      67              0.0000000000
      9697        95  DOPC      H18R           -8.2380826660       13.1874051670       -0.4793467084  MEMB      67              0.0000000000
      9698        95  DOPC      H18S           -7.6628857069       14.8786572015       -0.3915643443  MEMB      67              0.0000000000
      9699        95  DOPC      H18T           -6.4669981746       13.5984400863       -0.5904152802  MEMB      67              0.0000000000
      9700        95  DOPC      C33            -9.8933793115       14.0899807634      -12.2371424113  MEMB      67              0.0000000000
      9701        95  DOPC      H3X            -9.9217937324       12.9855100653      -12.1202747745  MEMB      67              0.0000000000
      9702        95  DOPC      H3Y           -10.6202266066       14.3823350292      -11.4493960491  MEMB      67              0.0000000000
      9703        95  DOPC      C34            -8.4939309397       14.6932328839      -12.0298526030  MEMB      67              0.0000000000
      9704        95  DOPC      H4X            -8.4012845387       15.7339795255      -12.4074550683  MEMB      67              0.0000000000
      9705        95  DOPC      H4Y            -7.8071777325       14.0717387952      -12.6433966631  MEMB      67              0.0000000000
      9706        95  DOPC      C35            -8.0534572104       14.6585939363      -10.5319975393  MEMB      67              0.0000000000
      9707        95  DOPC      H5X            -8.8317332455       15.1136487284       -9.8827424412  MEMB      67              0.0000000000
      9708        95  DOPC      H5Y            -7.1533794501       15.3094128945      -10.5568173380  MEMB      67              0.0000000000
      9709        95  DOPC      C36            -7.7433316303       13.1770984589      -10.2089357185  MEMB      67              0.0000000000
      9710        95  DOPC      H6X            -8.6661461830       12.5895090200      -10.0153570319  MEMB      67              0.0000000000
      9711        95  DOPC      H6Y            -7.3150467243       12.7971134303      -11.1610404716  MEMB      67              0.0000000000
      9712        95  DOPC      C37            -6.7668655743       13.0451550541       -9.0091994152  MEMB      67              0.0000000000
      9713        95  DOPC      H7X            -7.2433176543       13.6735318190       -8.2266030420  MEMB      67              0.0000000000
      9714        95  DOPC      H7Y            -6.8529077639       12.0141913650       -8.6041913811  MEMB      67              0.0000000000
      9715        95  DOPC      C38            -5.2467490229       13.3722600910       -9.3415617771  MEMB      67              0.0000000000
      9716        95  DOPC      H8X            -5.2089100484       14.1905941877      -10.0920414521  MEMB      67              0.0000000000
      9717        95  DOPC      H8Y            -4.8777649598       12.4528916261       -9.8444873622  MEMB      67              0.0000000000
      9718        95  DOPC      C39            -4.4240158046       13.6448063668       -8.0291474373  MEMB      67              0.0000000000
      9719        95  DOPC      H9X            -4.3537553455       14.6366024772       -7.5586118314  MEMB      67              0.0000000000
      9720        95  DOPC      C310           -4.0687072616       12.5416290636       -7.3066183198  MEMB      67              0.0000000000
      9721        95  DOPC      H10X           -3.5375050366       12.8556109741       -6.3959918146  MEMB      67              0.0000000000
      9722        95  DOPC      C311           -4.3000527455       11.0845574005       -7.4781128572  MEMB      67              0.0000000000
      9723        95  DOPC      H11X           -3.3600946724       10.6174440969       -7.8422629532  MEMB      67              0.0000000000
      9724        95  DOPC      H11Y           -5.1075089238       10.8691373834       -8.2101854396  MEMB      67              0.0000000000
      9725        95  DOPC      C312           -4.5814167837       10.4355640338       -6.1516595135  MEMB      67              0.0000000000
      9726        95  DOPC      H12X           -3.8109023792       10.7001245272       -5.3962550371  MEMB      67              0.0000000000
      9727        95  DOPC      H12Y           -4.6495035690        9.3281132915       -6.0947566563  MEMB      67              0.0000000000
      9728        95  DOPC      C313           -5.9565523942       10.9888859748       -5.6201119521  MEMB      67              0.0000000000
      9729        95  DOPC      H13X           -5.9449620744       12.0677590578       -5.3551221921  MEMB      67              0.0000000000
      9730        95  DOPC      H13Y           -6.7710195299       10.9206078147       -6.3726420963  MEMB      67              0.0000000000
      9731        95  DOPC      C314           -6.5402379381       10.1485559043       -4.3993229339  MEMB      67              0.0000000000
      9732        95  DOPC      H14X           -7.5706452310       10.5605547789       -4.3460471678  MEMB      67              0.0000000000
      9733        95  DOPC      H14Y           -6.5065035064        9.0564884719       -4.6007478111  MEMB      67              0.0000000000
      9734        95  DOPC      C315           -5.7186113113       10.4820027353       -3.1833035400  MEMB      67              0.0000000000
      9735        95  DOPC      H15X           -5.6070641336       11.5873888127       -3.1833978647  MEMB      67              0.0000000000
      9736        95  DOPC      H15Y           -4.6844945007       10.0879162827       -3.2813823961  MEMB      67              0.0000000000
      9737        95  DOPC      C316           -6.3110318033        9.9581562069       -1.8467730913  MEMB      67              0.0000000000
      9738        95  DOPC      H16X           -5.6517605424       10.4317845142       -1.0882480838  MEMB      67              0.0000000000
      9739        95  DOPC      H16Y           -7.3196499340       10.3710437213       -1.6310545911  MEMB      67              0.0000000000
      9740        95  DOPC      C317           -6.1799564392        8.4393536977       -1.7225700492  MEMB      67              0.0000000000
      9741        95  DOPC      H17X           -6.7530204101        7.8982846034       -2.5056172703  MEMB      67              0.0000000000
      9742        95  DOPC      H17Y           -5.1240080116        8.1814044330       -1.9522590585  MEMB      67              0.0000000000
      9743        95  DOPC      C318           -6.5604392315        7.7714966913       -0.3831269019  MEMB      67              0.0000000000
      9744        95  DOPC      H18X           -6.7834319123        6.7184942861       -0.6584105442  MEMB      67              0.0000000000
      9745        95  DOPC      H18Y           -5.7069498698        7.9709381441        0.2995879736  MEMB      67              0.0000000000
      9746        95  DOPC      H18Z           -7.5000098083        8.2943516489       -0.1035745878  MEMB      67              0.0000000000
      9747        96  DOPC      N              -3.6173064633      -11.1709198289      -19.6963163786  MEMB      68              0.0000000000
      9748        96  DOPC      C12            -3.9417840387      -11.1864453317      -18.2013153362  MEMB      68              0.0000000000
      9749        96  DOPC      H12A           -3.2980191521      -10.4049381083      -17.8255321737  MEMB      68              0.0000000000
      9750        96  DOPC      H12B           -3.6748335051      -12.0732034950      -17.6456199619  MEMB      68              0.0000000000
      9751        96  DOPC      C13            -4.2863066837      -12.3324981097      -20.4169372072  MEMB      68              0.0000000000
      9752        96  DOPC      H13A           -3.9675095322      -13.3083173472      -20.0814595938  MEMB      68              0.0000000000
      9753        96  DOPC      H13B           -5.3566664645      -12.2263257645      -20.3196880828  MEMB      68              0.0000000000
      9754        96  DOPC      H13C           -4.0812682304      -12.1566257580      -21.4626084479  MEMB      68              0.0000000000
      9755        96  DOPC      C14            -2.0787031746      -11.1489512119      -19.8854557240  MEMB      68              0.0000000000
      9756        96  DOPC      H14A           -1.7051988190      -10.1495930085      -20.0533171557  MEMB      68              0.0000000000
      9757        96  DOPC      H14B           -1.6411704354      -11.4912023808      -18.9592649502  MEMB      68              0.0000000000
      9758        96  DOPC      H14C           -1.7973813182      -11.8079187582      -20.6935521887  MEMB      68              0.0000000000
      9759        96  DOPC      C15            -4.3040291795       -9.9070944646      -20.2329987439  MEMB      68              0.0000000000
      9760        96  DOPC      H15A           -4.1877626231       -9.6808213407      -21.2826093426  MEMB      68              0.0000000000
      9761        96  DOPC      H15B           -4.0088331801       -9.0205400617      -19.6914449242  MEMB      68              0.0000000000
      9762        96  DOPC      H15C           -5.3558499718       -9.8879631647      -19.9886487286  MEMB      68              0.0000000000
      9763        96  DOPC      C11            -5.3864674964      -10.9988001032      -17.7422765022  MEMB      68              0.0000000000
      9764        96  DOPC      H11A           -5.4737112454      -10.9854262756      -16.6347880078  MEMB      68              0.0000000000
      9765        96  DOPC      H11B           -5.6658093203       -9.9781458018      -18.0807346271  MEMB      68              0.0000000000
      9766        96  DOPC      P              -7.7625917397      -11.5893592908      -18.6578682143  MEMB      68              0.0000000000
      9767        96  DOPC      O13            -8.5141939806      -12.8639931184      -18.7064315628  MEMB      68              0.0000000000
      9768        96  DOPC      O14            -7.8301364030      -10.7352607553      -19.8543533677  MEMB      68              0.0000000000
      9769        96  DOPC      O12            -6.2371876370      -11.9632871616      -18.2313401123  MEMB      68              0.0000000000
      9770        96  DOPC      O11            -8.2352896087      -10.8048862007      -17.3747068854  MEMB      68              0.0000000000
      9771        96  DOPC      C1             -9.5340082698      -10.2993202097      -17.3645358844  MEMB      68              0.0000000000
      9772        96  DOPC      HA            -10.3590321904      -10.9157986614      -17.7812024541  MEMB      68              0.0000000000
      9773        96  DOPC      HB             -9.3683075131       -9.3250314802      -17.8721044110  MEMB      68              0.0000000000
      9774        96  DOPC      C2            -10.0886963381       -9.9652507019      -15.9666565598  MEMB      68              0.0000000000
      9775        96  DOPC      HS            -11.1228617944       -9.5638388363      -16.0274099035  MEMB      68              0.0000000000
      9776        96  DOPC      O21            -9.2023332319       -9.0161965091      -15.3016977629  MEMB      68              0.0000000000
      9777        96  DOPC      C21            -9.6662774169       -8.3026693842      -14.2559022518  MEMB      68              0.0000000000
      9778        96  DOPC      O22           -10.8533789256       -8.1945956748      -13.9275478257  MEMB      68              0.0000000000
      9779        96  DOPC      C22            -8.4493877051       -7.8329712705      -13.4458831067  MEMB      68              0.0000000000
      9780        96  DOPC      H2R            -8.0568028193       -7.0280417363      -14.1033679182  MEMB      68              0.0000000000
      9781        96  DOPC      H2S            -7.7200577690       -8.6710174183      -13.4547020641  MEMB      68              0.0000000000
      9782        96  DOPC      C3            -10.1294224536      -11.3598640363      -15.2837226992  MEMB      68              0.0000000000
      9783        96  DOPC      HX            -10.8625998124      -11.9376687297      -15.8861459709  MEMB      68              0.0000000000
      9784        96  DOPC      HY            -10.6219161082      -11.1897620130      -14.3024805282  MEMB      68              0.0000000000
      9785        96  DOPC      O31            -8.9092036427      -11.9464466231      -15.0130868486  MEMB      68              0.0000000000
      9786        96  DOPC      C31            -8.5275876355      -13.2069540401      -15.1659482854  MEMB      68              0.0000000000
      9787        96  DOPC      O32            -9.2663790336      -14.2531159467      -15.1295661875  MEMB      68              0.0000000000
      9788        96  DOPC      C32            -6.9894738064      -13.1889872005      -15.2343191499  MEMB      68              0.0000000000
      9789        96  DOPC      H2X            -6.7969718168      -13.3647249811      -16.3143100645  MEMB      68              0.0000000000
      9790        96  DOPC      H2Y            -6.4189792303      -12.4043295373      -14.6928682363  MEMB      68              0.0000000000
      9791        96  DOPC      C23            -8.9794498406       -7.2416201844      -12.1275649823  MEMB      68              0.0000000000
      9792        96  DOPC      H3R            -9.9196177802       -6.6515813524      -12.1751042494  MEMB      68              0.0000000000
      9793        96  DOPC      H3S            -8.2643925626       -6.4489507924      -11.8198482966  MEMB      68              0.0000000000
      9794        96  DOPC      C24            -9.2703641423       -8.2910267813      -11.0499844198  MEMB      68              0.0000000000
      9795        96  DOPC      H4R           -10.0802995652       -8.8945558859      -11.5126697091  MEMB      68              0.0000000000
      9796        96  DOPC      H4S            -9.6791139913       -7.7960882883      -10.1431870957  MEMB      68              0.0000000000
      9797        96  DOPC      C25            -8.0169446288       -9.0865956003      -10.6294317740  MEMB      68              0.0000000000
      9798        96  DOPC      H5R            -7.9535276051       -9.2077317908       -9.5268781723  MEMB      68              0.0000000000
      9799        96  DOPC      H5S            -7.1358375083       -8.5000424183      -10.9669628789  MEMB      68              0.0000000000
      9800        96  DOPC      C26            -7.9700485799      -10.5193099534      -11.1582013218  MEMB      68              0.0000000000
      9801        96  DOPC      H6R            -6.9023870879      -10.8236385439      -11.1157269099  MEMB      68              0.0000000000
      9802        96  DOPC      H6S            -8.2549045294      -10.6898117349      -12.2184404729  MEMB      68              0.0000000000
      9803        96  DOPC      C27            -8.7345196514      -11.4766479559      -10.2756892133  MEMB      68              0.0000000000
      9804        96  DOPC      H7R            -9.7735656029      -11.0961820349      -10.3754384207  MEMB      68              0.0000000000
      9805        96  DOPC      H7S            -8.2946293209      -11.2498514438       -9.2810128631  MEMB      68              0.0000000000
      9806        96  DOPC      C28            -8.6703809587      -13.0162486438      -10.6110905032  MEMB      68              0.0000000000
      9807        96  DOPC      H8R            -8.9346431907      -12.8422078362      -11.6760765812  MEMB      68              0.0000000000
      9808        96  DOPC      H8S            -9.4967345865      -13.6024487435      -10.1552069342  MEMB      68              0.0000000000
      9809        96  DOPC      C29            -7.5137874291      -13.9695811620      -10.5629780497  MEMB      68              0.0000000000
      9810        96  DOPC      H9R            -7.4227344089      -14.6921378385      -11.3873693685  MEMB      68              0.0000000000
      9811        96  DOPC      C210           -6.5250947894      -13.9344723980       -9.5856715721  MEMB      68              0.0000000000
      9812        96  DOPC      H10R           -5.7039356807      -14.6606910142       -9.6767965105  MEMB      68              0.0000000000
      9813        96  DOPC      C211           -6.2951039529      -13.0147538137       -8.3544293487  MEMB      68              0.0000000000
      9814        96  DOPC      H11R           -6.7169534593      -11.9940778386       -8.4751956579  MEMB      68              0.0000000000
      9815        96  DOPC      H11S           -5.1891179351      -12.9126537367       -8.3807291929  MEMB      68              0.0000000000
      9816        96  DOPC      C212           -6.8927311593      -13.5178506376       -7.0430180102  MEMB      68              0.0000000000
      9817        96  DOPC      H12R           -6.8742727743      -12.7632837448       -6.2277818933  MEMB      68              0.0000000000
      9818        96  DOPC      H12S           -6.2727671601      -14.3639396475       -6.6768230192  MEMB      68              0.0000000000
      9819        96  DOPC      C213           -8.4327239768      -13.7628000170       -7.1137200078  MEMB      68              0.0000000000
      9820        96  DOPC      H13R           -8.5674749549      -14.6853907159       -7.7178638542  MEMB      68              0.0000000000
      9821        96  DOPC      H13S           -8.7991360668      -12.7944923870       -7.5167631931  MEMB      68              0.0000000000
      9822        96  DOPC      C214           -9.0817682009      -14.1585640762       -5.7342158203  MEMB      68              0.0000000000
      9823        96  DOPC      H14R           -8.4616173009      -14.9550002504       -5.2700782915  MEMB      68              0.0000000000
      9824        96  DOPC      H14S          -10.0891151934      -14.6139925660       -5.8444776435  MEMB      68              0.0000000000
      9825        96  DOPC      C215           -9.2600035950      -12.9514750037       -4.8186449768  MEMB      68              0.0000000000
      9826        96  DOPC      H15R           -9.8224433220      -12.1443424846       -5.3349005078  MEMB      68              0.0000000000
      9827        96  DOPC      H15S           -8.2973362294      -12.4999107255       -4.4966482550  MEMB      68              0.0000000000
      9828        96  DOPC      C216          -10.0029198822      -13.1992870150       -3.5391808341  MEMB      68              0.0000000000
      9829        96  DOPC      H16R          -10.1121894003      -12.2812936949       -2.9230076806  MEMB      68              0.0000000000
      9830        96  DOPC      H16S           -9.3030486962      -13.9396322534       -3.0960226080  MEMB      68              0.0000000000
      9831        96  DOPC      C217          -11.4006518197      -13.8763916771       -3.6937110829  MEMB      68              0.0000000000
      9832        96  DOPC      H17R          -11.3389438545      -14.9370281743       -4.0186169229  MEMB      68              0.0000000000
      9833        96  DOPC      H17S          -11.9777847360      -13.3050304087       -4.4518565644  MEMB      68              0.0000000000
      9834        96  DOPC      C218          -12.2128393011      -13.7421397466       -2.4235046787  MEMB      68              0.0000000000
      9835        96  DOPC      H18R          -13.1514157686      -14.3138968377       -2.5862578253  MEMB      68              0.0000000000
      9836        96  DOPC      H18S          -12.3740041789      -12.6789960426       -2.1440902032  MEMB      68              0.0000000000
      9837        96  DOPC      H18T          -11.6892349465      -14.2755509508       -1.6015358722  MEMB      68              0.0000000000
      9838        96  DOPC      C33            -6.3956577579      -14.3690964110      -14.5932460108  MEMB      68              0.0000000000
      9839        96  DOPC      H3X            -6.7425035506      -15.2398757956      -15.1897039584  MEMB      68              0.0000000000
      9840        96  DOPC      H3Y            -6.8387502696      -14.6577890279      -13.6161858504  MEMB      68              0.0000000000
      9841        96  DOPC      C34            -4.8420262114      -14.5118448535      -14.7858254891  MEMB      68              0.0000000000
      9842        96  DOPC      H4X            -4.6612845037      -14.7071702931      -15.8644827896  MEMB      68              0.0000000000
      9843        96  DOPC      H4Y            -4.4581348719      -15.2755299632      -14.0760835391  MEMB      68              0.0000000000
      9844        96  DOPC      C35            -3.9823727510      -13.2963532331      -14.3105777308  MEMB      68              0.0000000000
      9845        96  DOPC      H5X            -4.2793029632      -12.3836871926      -14.8702156841  MEMB      68              0.0000000000
      9846        96  DOPC      H5Y            -2.9017644305      -13.2874263825      -14.5685060476  MEMB      68              0.0000000000
      9847        96  DOPC      C36            -4.1460707537      -13.1120502575      -12.8189808843  MEMB      68              0.0000000000
      9848        96  DOPC      H6X            -5.2063425694      -12.9314962608      -12.5405112177  MEMB      68              0.0000000000
      9849        96  DOPC      H6Y            -3.6943537694      -13.9205136938      -12.2052550506  MEMB      68              0.0000000000
      9850        96  DOPC      C37            -3.3846617725      -11.8041933819      -12.4461058652  MEMB      68              0.0000000000
      9851        96  DOPC      H7X            -2.3379137171      -12.1647730758      -12.5389594931  MEMB      68              0.0000000000
      9852        96  DOPC      H7Y            -3.6797626322      -10.9936157132      -13.1462489665  MEMB      68              0.0000000000
      9853        96  DOPC      C38            -3.7263895738      -11.3426577162      -11.0407630017  MEMB      68              0.0000000000
      9854        96  DOPC      H8X            -3.7033180532      -12.3739309622      -10.6281322742  MEMB      68              0.0000000000
      9855        96  DOPC      H8Y            -4.7687801650      -10.9798777628      -10.9137435397  MEMB      68              0.0000000000
      9856        96  DOPC      C39            -2.7528412468      -10.3133954545      -10.4516655440  MEMB      68              0.0000000000
      9857        96  DOPC      H9X            -1.7058710743      -10.4731554981      -10.7488698507  MEMB      68              0.0000000000
      9858        96  DOPC      C310           -3.0099123386       -9.1044208658       -9.8408854103  MEMB      68              0.0000000000
      9859        96  DOPC      H10X           -2.2402337101       -8.4011485113       -9.4901672910  MEMB      68              0.0000000000
      9860        96  DOPC      C311           -4.4292846606       -8.5431623204       -9.5997440239  MEMB      68              0.0000000000
      9861        96  DOPC      H11X           -5.2722271402       -9.2639156052       -9.6651967191  MEMB      68              0.0000000000
      9862        96  DOPC      H11Y           -4.5997135683       -7.8634054381      -10.4618380816  MEMB      68              0.0000000000
      9863        96  DOPC      C312           -4.6644651275       -7.6469939006       -8.3333280177  MEMB      68              0.0000000000
      9864        96  DOPC      H12X           -5.6347401989       -7.1091303560       -8.2734065466  MEMB      68              0.0000000000
      9865        96  DOPC      H12Y           -3.8792519694       -6.8616167191       -8.3640550549  MEMB      68              0.0000000000
      9866        96  DOPC      C313           -4.4586785752       -8.5142368089       -7.0711683263  MEMB      68              0.0000000000
      9867        96  DOPC      H13X           -3.4198751355       -8.4317137690       -6.6859437274  MEMB      68              0.0000000000
      9868        96  DOPC      H13Y           -5.0707606675       -8.0122531389       -6.2916240033  MEMB      68              0.0000000000
      9869        96  DOPC      C314           -4.9996963878       -9.9514065416       -6.9951256826  MEMB      68              0.0000000000
      9870        96  DOPC      H14X           -5.8937276249       -9.9324018704       -7.6544193254  MEMB      68              0.0000000000
      9871        96  DOPC      H14Y           -4.2017711252      -10.5809542811       -7.4437966407  MEMB      68              0.0000000000
      9872        96  DOPC      C315           -5.3229499116      -10.3821158037       -5.5546021232  MEMB      68              0.0000000000
      9873        96  DOPC      H15X           -5.3769520570      -11.4916989447       -5.5697678162  MEMB      68              0.0000000000
      9874        96  DOPC      H15Y           -6.2995009539      -10.0219548942       -5.1660750312  MEMB      68              0.0000000000
      9875        96  DOPC      C316           -4.1229224423      -10.0637714691       -4.7163209409  MEMB      68              0.0000000000
      9876        96  DOPC      H16X           -3.1947725696      -10.5226627902       -5.1191578483  MEMB      68              0.0000000000
      9877        96  DOPC      H16Y           -3.9473817159       -8.9907698610       -4.4879055578  MEMB      68              0.0000000000
      9878        96  DOPC      C317           -4.1834048615      -10.6846706328       -3.3414554665  MEMB      68              0.0000000000
      9879        96  DOPC      H17X           -3.3869808495      -10.2376627142       -2.7088315450  MEMB      68              0.0000000000
      9880        96  DOPC      H17Y           -5.0628155855      -10.1946173766       -2.8715553221  MEMB      68              0.0000000000
      9881        96  DOPC      C318           -4.2976288292      -12.1902193312       -3.0430065410  MEMB      68              0.0000000000
      9882        96  DOPC      H18X           -4.2758286021      -12.5738293420       -2.0005617292  MEMB      68              0.0000000000
      9883        96  DOPC      H18Y           -5.2650613984      -12.5880362609       -3.4173550070  MEMB      68              0.0000000000
      9884        96  DOPC      H18Z           -3.4752223317      -12.7225576178       -3.5670145459  MEMB      68              0.0000000000
      9885        97  DOPC      N               9.8793152881       -7.0443065041      -18.8541866060  MEMB      69              0.0000000000
      9886        97  DOPC      C12            10.9022634770       -6.6023917147      -17.7389947528  MEMB      69              0.0000000000
      9887        97  DOPC      H12A           11.7486014904       -7.2725582006      -17.7704417090  MEMB      69              0.0000000000
      9888        97  DOPC      H12B           10.3446853658       -6.6768866501      -16.8170636065  MEMB      69              0.0000000000
      9889        97  DOPC      C13             8.7214708122       -6.0683516371      -18.8711902516  MEMB      69              0.0000000000
      9890        97  DOPC      H13A            8.2241246667       -6.1009449848      -17.9130752099  MEMB      69              0.0000000000
      9891        97  DOPC      H13B            9.1834908396       -5.1099531810      -19.0566890220  MEMB      69              0.0000000000
      9892        97  DOPC      H13C            7.9315079114       -6.2592054171      -19.5824802597  MEMB      69              0.0000000000
      9893        97  DOPC      C14             9.3916496753       -8.4315568653      -18.4901370960  MEMB      69              0.0000000000
      9894        97  DOPC      H14A           10.0108020706       -9.2307676635      -18.8700218475  MEMB      69              0.0000000000
      9895        97  DOPC      H14B            9.1480395207       -8.5687842192      -17.4469580585  MEMB      69              0.0000000000
      9896        97  DOPC      H14C            8.4465989097       -8.4704965383      -19.0114459771  MEMB      69              0.0000000000
      9897        97  DOPC      C15            10.4546512387       -7.1009941330      -20.1908481299  MEMB      69              0.0000000000
      9898        97  DOPC      H15A           11.4883192198       -7.4132938720      -20.1708641719  MEMB      69              0.0000000000
      9899        97  DOPC      H15B           10.4783038230       -6.0746482278      -20.5261905918  MEMB      69              0.0000000000
      9900        97  DOPC      H15C            9.8135561075       -7.7489821032      -20.7700794155  MEMB      69              0.0000000000
      9901        97  DOPC      C11            11.5695628762       -5.1663922557      -17.8806498238  MEMB      69              0.0000000000
      9902        97  DOPC      H11A           10.6490984695       -4.5530835009      -17.9851416899  MEMB      69              0.0000000000
      9903        97  DOPC      H11B           12.1628866952       -4.8807653040      -16.9858287008  MEMB      69              0.0000000000
      9904        97  DOPC      P              13.0806602560       -3.6308933337      -19.4441203539  MEMB      69              0.0000000000
      9905        97  DOPC      O13            12.5603031823       -2.5432094950      -18.5738659035  MEMB      69              0.0000000000
      9906        97  DOPC      O14            13.0792361932       -3.4794809519      -20.8844826382  MEMB      69              0.0000000000
      9907        97  DOPC      O12            12.3334742922       -5.0101907615      -19.0693728474  MEMB      69              0.0000000000
      9908        97  DOPC      O11            14.5008818120       -4.0919350244      -19.0021515453  MEMB      69              0.0000000000
      9909        97  DOPC      C1             15.0768808083       -3.4414962877      -17.9005194154  MEMB      69              0.0000000000
      9910        97  DOPC      HA             14.3489551649       -3.6659150248      -17.0917664047  MEMB      69              0.0000000000
      9911        97  DOPC      HB             15.1669956055       -2.3429241245      -18.0395853872  MEMB      69              0.0000000000
      9912        97  DOPC      C2             16.5159579316       -3.9450846701      -17.4894903504  MEMB      69              0.0000000000
      9913        97  DOPC      HS             17.0401471700       -4.0984706866      -18.4569712975  MEMB      69              0.0000000000
      9914        97  DOPC      O21            16.4299684325       -5.1858619109      -16.8265299595  MEMB      69              0.0000000000
      9915        97  DOPC      C21            16.2128038922       -6.2810712464      -17.4829215910  MEMB      69              0.0000000000
      9916        97  DOPC      O22            16.1391881177       -6.3946479675      -18.7178603865  MEMB      69              0.0000000000
      9917        97  DOPC      C22            15.9398813400       -7.3579910937      -16.4581750347  MEMB      69              0.0000000000
      9918        97  DOPC      H2R            16.7172802876       -7.3914389446      -15.6651728131  MEMB      69              0.0000000000
      9919        97  DOPC      H2S            15.8808609131       -8.3244155158      -17.0030248902  MEMB      69              0.0000000000
      9920        97  DOPC      C3             17.2132834478       -2.8788217544      -16.6088325307  MEMB      69              0.0000000000
      9921        97  DOPC      HX             17.3480454191       -1.9307549730      -17.1721520010  MEMB      69              0.0000000000
      9922        97  DOPC      HY             18.2110389581       -3.2966501719      -16.3554066280  MEMB      69              0.0000000000
      9923        97  DOPC      O31            16.4792497028       -2.5943957764      -15.4516375498  MEMB      69              0.0000000000
      9924        97  DOPC      C31            16.5274973152       -3.4023607718      -14.4345257178  MEMB      69              0.0000000000
      9925        97  DOPC      O32            17.3197785223       -4.3386573983      -14.3699894402  MEMB      69              0.0000000000
      9926        97  DOPC      C32            15.7930358386       -2.7870910811      -13.2331585040  MEMB      69              0.0000000000
      9927        97  DOPC      H2X            16.2000066191       -3.1638607760      -12.2704851474  MEMB      69              0.0000000000
      9928        97  DOPC      H2Y            15.8627104429       -1.6784076337      -13.2501072384  MEMB      69              0.0000000000
      9929        97  DOPC      C23            14.6249045185       -7.1381993951      -15.6733870431  MEMB      69              0.0000000000
      9930        97  DOPC      H3R            13.7764878220       -7.2144484143      -16.3866164570  MEMB      69              0.0000000000
      9931        97  DOPC      H3S            14.5079601949       -6.2476352618      -15.0195209419  MEMB      69              0.0000000000
      9932        97  DOPC      C24            14.3377222062       -8.3730588636      -14.6953994274  MEMB      69              0.0000000000
      9933        97  DOPC      H4R            14.4552262025       -9.2335541704      -15.3882642009  MEMB      69              0.0000000000
      9934        97  DOPC      H4S            13.2681096902       -8.2365111773      -14.4278091390  MEMB      69              0.0000000000
      9935        97  DOPC      C25            15.3138908501       -8.5009906324      -13.5303422134  MEMB      69              0.0000000000
      9936        97  DOPC      H5R            16.3577005244       -8.5571587174      -13.9066764452  MEMB      69              0.0000000000
      9937        97  DOPC      H5S            15.1519786906       -9.4602013406      -12.9936671466  MEMB      69              0.0000000000
      9938        97  DOPC      C26            15.2016089160       -7.5324164038      -12.4022145863  MEMB      69              0.0000000000
      9939        97  DOPC      H6R            15.3843569134       -6.6154341587      -13.0022710104  MEMB      69              0.0000000000
      9940        97  DOPC      H6S            16.0967015127       -7.6535190972      -11.7553262442  MEMB      69              0.0000000000
      9941        97  DOPC      C27            13.8417660887       -7.4531007141      -11.7106103887  MEMB      69              0.0000000000
      9942        97  DOPC      H7R            13.0080687204       -7.7903320424      -12.3629482428  MEMB      69              0.0000000000
      9943        97  DOPC      H7S            13.5772605052       -6.3795889303      -11.6013847536  MEMB      69              0.0000000000
      9944        97  DOPC      C28            13.6750036346       -8.1842075729      -10.4169203473  MEMB      69              0.0000000000
      9945        97  DOPC      H8R            13.8308756441       -9.2819465794      -10.4875845325  MEMB      69              0.0000000000
      9946        97  DOPC      H8S            12.6364909755       -7.9344961257      -10.1112134976  MEMB      69              0.0000000000
      9947        97  DOPC      C29            14.5648115389       -7.7347192065       -9.2571080508  MEMB      69              0.0000000000
      9948        97  DOPC      H9R            15.5849203444       -8.1459325140       -9.2403277109  MEMB      69              0.0000000000
      9949        97  DOPC      C210           14.2618666214       -6.8085017322       -8.3896900331  MEMB      69              0.0000000000
      9950        97  DOPC      H10R           15.0386548892       -6.5276671049       -7.6632381772  MEMB      69              0.0000000000
      9951        97  DOPC      C211           13.0013848630       -5.9663237914       -8.3792413439  MEMB      69              0.0000000000
      9952        97  DOPC      H11R           12.4027367783       -6.1384273201       -9.2991984977  MEMB      69              0.0000000000
      9953        97  DOPC      H11S           13.1908536993       -4.8730394945       -8.3231019024  MEMB      69              0.0000000000
      9954        97  DOPC      C212           12.1011123961       -6.2471737947       -7.2048527409  MEMB      69              0.0000000000
      9955        97  DOPC      H12R           11.7473809443       -7.3000350784       -7.2308929760  MEMB      69              0.0000000000
      9956        97  DOPC      H12S           11.2237693416       -5.5685892061       -7.2689868514  MEMB      69              0.0000000000
      9957        97  DOPC      C213           12.6478178844       -6.2159497797       -5.7250775097  MEMB      69              0.0000000000
      9958        97  DOPC      H13R           13.1783242733       -7.1553036369       -5.4595622071  MEMB      69              0.0000000000
      9959        97  DOPC      H13S           11.7327112840       -6.0476572557       -5.1179706935  MEMB      69              0.0000000000
      9960        97  DOPC      C214           13.6744120042       -5.0185752094       -5.3979827343  MEMB      69              0.0000000000
      9961        97  DOPC      H14R           13.2327343446       -3.9993080510       -5.4163203323  MEMB      69              0.0000000000
      9962        97  DOPC      H14S           14.4739803541       -4.9481636921       -6.1661321755  MEMB      69              0.0000000000
      9963        97  DOPC      C215           14.3889609455       -5.2007838084       -4.0751602332  MEMB      69              0.0000000000
      9964        97  DOPC      H15R           13.6740897259       -5.5574654229       -3.3031125161  MEMB      69              0.0000000000
      9965        97  DOPC      H15S           14.6835885561       -4.1747108016       -3.7674434781  MEMB      69              0.0000000000
      9966        97  DOPC      C216           15.7049554293       -5.9817804920       -4.2548710956  MEMB      69              0.0000000000
      9967        97  DOPC      H16R           16.5346078479       -5.2899206237       -4.5143471917  MEMB      69              0.0000000000
      9968        97  DOPC      H16S           15.5651988367       -6.7314423793       -5.0628300249  MEMB      69              0.0000000000
      9969        97  DOPC      C217           16.1524334208       -6.7627974404       -3.0375051244  MEMB      69              0.0000000000
      9970        97  DOPC      H17R           16.9037431573       -7.4968494518       -3.3994748244  MEMB      69              0.0000000000
      9971        97  DOPC      H17S           15.2574435523       -7.2296506101       -2.5734341745  MEMB      69              0.0000000000
      9972        97  DOPC      C218           16.6869564072       -5.9790009769       -1.8374899475  MEMB      69              0.0000000000
      9973        97  DOPC      H18R           16.0751500850       -5.1323118576       -1.4591635237  MEMB      69              0.0000000000
      9974        97  DOPC      H18S           17.6539149819       -5.5417624108       -2.1663276891  MEMB      69              0.0000000000
      9975        97  DOPC      H18T           16.8021740433       -6.6598613548       -0.9671588464  MEMB      69              0.0000000000
      9976        97  DOPC      C33            14.3008476913       -3.1985775938      -13.3005166921  MEMB      69              0.0000000000
      9977        97  DOPC      H3X            13.8651296386       -2.9869290332      -12.3006788116  MEMB      69              0.0000000000
      9978        97  DOPC      H3Y            14.1863289414       -4.2482858241      -13.6459430456  MEMB      69              0.0000000000
      9979        97  DOPC      C34            13.5555729779       -2.2681649877      -14.2448027685  MEMB      69              0.0000000000
      9980        97  DOPC      H4X            14.1661649615       -2.1593610229      -15.1665730910  MEMB      69              0.0000000000
      9981        97  DOPC      H4Y            13.4648067262       -1.2902239832      -13.7254630115  MEMB      69              0.0000000000
      9982        97  DOPC      C35            12.2858746079       -3.0376288099      -14.7121796654  MEMB      69              0.0000000000
      9983        97  DOPC      H5X            12.5100105650       -4.0678436485      -15.0625242890  MEMB      69              0.0000000000
      9984        97  DOPC      H5Y            11.7427275991       -2.5820880412      -15.5676298834  MEMB      69              0.0000000000
      9985        97  DOPC      C36            11.2402913515       -3.3476863698      -13.6104677718  MEMB      69              0.0000000000
      9986        97  DOPC      H6X            10.4013550299       -3.8444121891      -14.1431689644  MEMB      69              0.0000000000
      9987        97  DOPC      H6Y            11.6421022658       -4.1932683980      -13.0122535243  MEMB      69              0.0000000000
      9988        97  DOPC      C37            10.9849723846       -2.1794028756      -12.7168168442  MEMB      69              0.0000000000
      9989        97  DOPC      H7X            11.8141689219       -2.1186014140      -11.9798925869  MEMB      69              0.0000000000
      9990        97  DOPC      H7Y            10.9803883750       -1.2582052742      -13.3378602240  MEMB      69              0.0000000000
      9991        97  DOPC      C38             9.6878230989       -2.3220576782      -11.8615145886  MEMB      69              0.0000000000
      9992        97  DOPC      H8X             8.8655310932       -2.5268899667      -12.5799855176  MEMB      69              0.0000000000
      9993        97  DOPC      H8Y             9.5301734395       -1.3834742723      -11.2883400687  MEMB      69              0.0000000000
      9994        97  DOPC      C39             9.6671957391       -3.5187666241      -10.9078062781  MEMB      69              0.0000000000
      9995        97  DOPC      H9X             8.8789313355       -4.2651473814      -11.0854438828  MEMB      69              0.0000000000
      9996        97  DOPC      C310           10.4291220255       -3.6234267575       -9.7447710923  MEMB      69              0.0000000000
      9997        97  DOPC      H10X           10.3901854736       -4.5699327414       -9.1856553739  MEMB      69              0.0000000000
      9998        97  DOPC      C311           11.4176360902       -2.6667323958       -9.1606918789  MEMB      69              0.0000000000
      9999        97  DOPC      H11X           11.8431589074       -1.9444408509       -9.8897639908  MEMB      69              0.0000000000
     10000        97  DOPC      H11Y           12.2732685874       -3.1871860179       -8.6797110422  MEMB      69              0.0000000000
     10001        97  DOPC      C312           10.9564462416       -1.6713729119       -8.0651472452  MEMB      69              0.0000000000
     10002        97  DOPC      H12X           10.4678151541       -2.3235710221       -7.3100322521  MEMB      69              0.0000000000
     10003        97  DOPC      H12Y           10.2309564348       -0.9333171828       -8.4692003404  MEMB      69              0.0000000000
     10004        97  DOPC      C313           12.2000643816       -0.8718155779       -7.5426689805  MEMB      69              0.0000000000
     10005        97  DOPC      H13X           12.8806259147       -1.5625967383       -7.0004708928  MEMB      69              0.0000000000
     10006        97  DOPC      H13Y           12.6566003233       -0.4666850512       -8.4709822007  MEMB      69              0.0000000000
     10007        97  DOPC      C314           11.6797166225        0.2027524892       -6.6257111732  MEMB      69              0.0000000000
     10008        97  DOPC      H14X           10.9232786693        0.7888304384       -7.1901891925  MEMB      69              0.0000000000
     10009        97  DOPC      H14Y           10.9532594282       -0.2002656794       -5.8880411859  MEMB      69              0.0000000000
     10010        97  DOPC      C315           12.6593311469        1.1907147235       -5.8421181160  MEMB      69              0.0000000000
     10011        97  DOPC      H15X           12.0783190553        2.0848146973       -5.5301391372  MEMB      69              0.0000000000
     10012        97  DOPC      H15Y           13.4787039029        1.4948797834       -6.5279993701  MEMB      69              0.0000000000
     10013        97  DOPC      C316           13.2742618225        0.7125301504       -4.4974026726  MEMB      69              0.0000000000
     10014        97  DOPC      H16X           13.9028411607        1.5536783349       -4.1345279782  MEMB      69              0.0000000000
     10015        97  DOPC      H16Y           12.5802991676        0.5913955697       -3.6382964347  MEMB      69              0.0000000000
     10016        97  DOPC      C317           14.2113338659       -0.5025438944       -4.5805309935  MEMB      69              0.0000000000
     10017        97  DOPC      H17X           13.7214423842       -1.4336177937       -4.9375035148  MEMB      69              0.0000000000
     10018        97  DOPC      H17Y           14.9883038755       -0.1547786766       -5.2944627642  MEMB      69              0.0000000000
     10019        97  DOPC      C318           14.8958430641       -0.8373249835       -3.3037506617  MEMB      69              0.0000000000
     10020        97  DOPC      H18X           15.7125741099       -1.5823415329       -3.4143031005  MEMB      69              0.0000000000
     10021        97  DOPC      H18Y           15.3121299523        0.0767558723       -2.8289013324  MEMB      69              0.0000000000
     10022        97  DOPC      H18Z           14.2708731035       -1.3444182024       -2.5378588494  MEMB      69              0.0000000000
     10023        98  DOPC      N               9.7549569464        3.9976150121      -21.2939794899  MEMB      70              0.0000000000
     10024        98  DOPC      C12             9.2509584592        4.9287190282      -20.1642116677  MEMB      70              0.0000000000
     10025        98  DOPC      H12A            8.3743786056        5.4246099903      -20.5542114164  MEMB      70              0.0000000000
     10026        98  DOPC      H12B           10.0425076558        5.6481355146      -20.0149141591  MEMB      70              0.0000000000
     10027        98  DOPC      C13            10.9919256393        3.2724179018      -20.9442517201  MEMB      70              0.0000000000
     10028        98  DOPC      H13A           11.3055794808        2.5571575203      -21.6901898987  MEMB      70              0.0000000000
     10029        98  DOPC      H13B           11.7240885823        4.0654768243      -20.9816012217  MEMB      70              0.0000000000
     10030        98  DOPC      H13C           10.7908596189        2.9743705802      -19.9258508770  MEMB      70              0.0000000000
     10031        98  DOPC      C14             9.8105062011        4.7559348881      -22.5615407927  MEMB      70              0.0000000000
     10032        98  DOPC      H14A            8.8248550523        5.0653417078      -22.8764364558  MEMB      70              0.0000000000
     10033        98  DOPC      H14B           10.6284363145        5.4601209834      -22.5226557975  MEMB      70              0.0000000000
     10034        98  DOPC      H14C           10.2146908174        4.1070255494      -23.3243984770  MEMB      70              0.0000000000
     10035        98  DOPC      C15             8.7647438356        2.8973379858      -21.4224429381  MEMB      70              0.0000000000
     10036        98  DOPC      H15A            8.9563016343        2.3905810733      -22.3567357107  MEMB      70              0.0000000000
     10037        98  DOPC      H15B            7.7898256636        3.3540082626      -21.5083901533  MEMB      70              0.0000000000
     10038        98  DOPC      H15C            8.9100248128        2.2065329215      -20.6050801770  MEMB      70              0.0000000000
     10039        98  DOPC      C11             8.8444301144        4.2721390294      -18.7980982854  MEMB      70              0.0000000000
     10040        98  DOPC      H11A            8.7759825584        5.2154693916      -18.2152055892  MEMB      70              0.0000000000
     10041        98  DOPC      H11B            7.9124567330        3.6782679011      -18.9123946078  MEMB      70              0.0000000000
     10042        98  DOPC      P               9.9873557374        3.1123793537      -16.7240381814  MEMB      70              0.0000000000
     10043        98  DOPC      O13            10.4323641096        4.3701935187      -16.0861380341  MEMB      70              0.0000000000
     10044        98  DOPC      O14            11.0275234297        1.9962889920      -16.5549575366  MEMB      70              0.0000000000
     10045        98  DOPC      O12             9.8695874666        3.5165318877      -18.2640210810  MEMB      70              0.0000000000
     10046        98  DOPC      O11             8.5593024516        2.6537800724      -16.1863202370  MEMB      70              0.0000000000
     10047        98  DOPC      C1              7.5764307739        3.5060703992      -15.7567346449  MEMB      70              0.0000000000
     10048        98  DOPC      HA              6.6620901679        3.0462034227      -16.1889667245  MEMB      70              0.0000000000
     10049        98  DOPC      HB              7.6764604261        4.5454504009      -16.1362134449  MEMB      70              0.0000000000
     10050        98  DOPC      C2              7.6100319205        3.4957999861      -14.2197749246  MEMB      70              0.0000000000
     10051        98  DOPC      HS              8.5649528483        3.9847797454      -13.9310783886  MEMB      70              0.0000000000
     10052        98  DOPC      O21             7.6519710631        2.1590218500      -13.6617654219  MEMB      70              0.0000000000
     10053        98  DOPC      C21             8.7673937242        1.6601020396      -13.3607052060  MEMB      70              0.0000000000
     10054        98  DOPC      O22             9.8951291176        2.2189190549      -13.4236728481  MEMB      70              0.0000000000
     10055        98  DOPC      C22             8.6176771404        0.2609992378      -12.9723133905  MEMB      70              0.0000000000
     10056        98  DOPC      H2R             8.9778905171       -0.3923150404      -13.7955680789  MEMB      70              0.0000000000
     10057        98  DOPC      H2S             7.6801175327       -0.2111665857      -12.6084964669  MEMB      70              0.0000000000
     10058        98  DOPC      C3              6.3858338839        4.1567455638      -13.5717953561  MEMB      70              0.0000000000
     10059        98  DOPC      HX              5.4388793757        3.6104372026      -13.7696469748  MEMB      70              0.0000000000
     10060        98  DOPC      HY              6.3584918042        5.1769379433      -14.0108638831  MEMB      70              0.0000000000
     10061        98  DOPC      O31             6.3701947093        4.1371269075      -12.1155955494  MEMB      70              0.0000000000
     10062        98  DOPC      C31             7.1049727289        4.9943566789      -11.4674159602  MEMB      70              0.0000000000
     10063        98  DOPC      O32             8.0561989780        5.6536500881      -11.9502132736  MEMB      70              0.0000000000
     10064        98  DOPC      C32             6.7104375230        5.0128325006       -9.9899830474  MEMB      70              0.0000000000
     10065        98  DOPC      H2X             5.6377279653        5.3018298700       -9.9997479150  MEMB      70              0.0000000000
     10066        98  DOPC      H2Y             6.8276771131        3.9975530227       -9.5543415652  MEMB      70              0.0000000000
     10067        98  DOPC      C23             9.6492062199        0.1568484030      -11.8540586640  MEMB      70              0.0000000000
     10068        98  DOPC      H3R            10.6425448215        0.6462340039      -11.9440655052  MEMB      70              0.0000000000
     10069        98  DOPC      H3S             9.9726937262       -0.9034304930      -11.7799928814  MEMB      70              0.0000000000
     10070        98  DOPC      C24             9.1520572063        0.6013305691      -10.4545075271  MEMB      70              0.0000000000
     10071        98  DOPC      H4R             8.1378317067        0.2193054733      -10.2101217148  MEMB      70              0.0000000000
     10072        98  DOPC      H4S             9.0854975833        1.6994337465      -10.2993936457  MEMB      70              0.0000000000
     10073        98  DOPC      C25            10.0286319779       -0.0639281208       -9.3549630183  MEMB      70              0.0000000000
     10074        98  DOPC      H5R            11.1151842863        0.1563342643       -9.4271363126  MEMB      70              0.0000000000
     10075        98  DOPC      H5S             9.9038456563       -1.1645655091       -9.4406757334  MEMB      70              0.0000000000
     10076        98  DOPC      C26             9.5454383638        0.4990089159       -8.0107626658  MEMB      70              0.0000000000
     10077        98  DOPC      H6R             8.4406404471        0.5203134549       -7.8954862852  MEMB      70              0.0000000000
     10078        98  DOPC      H6S             9.8812561748        1.5480975628       -7.8659853594  MEMB      70              0.0000000000
     10079        98  DOPC      C27             9.9985639096       -0.2626071668       -6.7275124408  MEMB      70              0.0000000000
     10080        98  DOPC      H7R            11.1003295299       -0.3274216737       -6.6001064429  MEMB      70              0.0000000000
     10081        98  DOPC      H7S             9.6357251932       -1.3102540811       -6.7989598330  MEMB      70              0.0000000000
     10082        98  DOPC      C28             9.4288860711        0.4144175693       -5.4653066889  MEMB      70              0.0000000000
     10083        98  DOPC      H8R             8.3203073402        0.3939926055       -5.3948987775  MEMB      70              0.0000000000
     10084        98  DOPC      H8S             9.6942385241        1.4880604261       -5.3594749957  MEMB      70              0.0000000000
     10085        98  DOPC      C29            10.0055978256       -0.2054486696       -4.2242694268  MEMB      70              0.0000000000
     10086        98  DOPC      H9R             9.3931614919       -0.9189391704       -3.6534343700  MEMB      70              0.0000000000
     10087        98  DOPC      C210           11.1697079144        0.1209099066       -3.6978628791  MEMB      70              0.0000000000
     10088        98  DOPC      H10R           11.4940737564       -0.4680203104       -2.8272607399  MEMB      70              0.0000000000
     10089        98  DOPC      C211           12.1560502282        1.0991855394       -4.0976135760  MEMB      70              0.0000000000
     10090        98  DOPC      H11R           11.8214540747        1.7269556601       -4.9510018438  MEMB      70              0.0000000000
     10091        98  DOPC      H11S           12.9609331699        0.4313457823       -4.4724132399  MEMB      70              0.0000000000
     10092        98  DOPC      C212           12.6633266588        2.0991603763       -2.9905121545  MEMB      70              0.0000000000
     10093        98  DOPC      H12R           13.3866265403        2.7281923166       -3.5521851955  MEMB      70              0.0000000000
     10094        98  DOPC      H12S           13.1536300114        1.5148837198       -2.1827095938  MEMB      70              0.0000000000
     10095        98  DOPC      C213           11.4923667534        2.9257104977       -2.3871532841  MEMB      70              0.0000000000
     10096        98  DOPC      H13R           10.9560439495        2.3170565078       -1.6280621538  MEMB      70              0.0000000000
     10097        98  DOPC      H13S           10.7389069336        3.3062207781       -3.1095321594  MEMB      70              0.0000000000
     10098        98  DOPC      C214           12.0754813278        4.1957674142       -1.7434586944  MEMB      70              0.0000000000
     10099        98  DOPC      H14R           11.2590981972        4.9493161749       -1.7454149478  MEMB      70              0.0000000000
     10100        98  DOPC      H14S           12.9892925148        4.6156461263       -2.2156569336  MEMB      70              0.0000000000
     10101        98  DOPC      C215           12.3746088833        4.0527836532       -0.2941910397  MEMB      70              0.0000000000
     10102        98  DOPC      H15R           11.8645669597        3.1935210353        0.1914480959  MEMB      70              0.0000000000
     10103        98  DOPC      H15S           12.0487128231        4.9897414144        0.2060324428  MEMB      70              0.0000000000
     10104        98  DOPC      C216           13.8865658142        3.9374639590       -0.0910887319  MEMB      70              0.0000000000
     10105        98  DOPC      H16R           14.4311377890        4.5826185194       -0.8132645612  MEMB      70              0.0000000000
     10106        98  DOPC      H16S           14.1523984321        2.8635037907       -0.1923987172  MEMB      70              0.0000000000
     10107        98  DOPC      C217           14.3098650003        4.4443066497        1.3284843930  MEMB      70              0.0000000000
     10108        98  DOPC      H17R           14.4075411332        5.5505738481        1.3593562765  MEMB      70              0.0000000000
     10109        98  DOPC      H17S           15.3625147442        4.1303516327        1.4948620347  MEMB      70              0.0000000000
     10110        98  DOPC      C218           13.5667127985        3.8661446023        2.5534939226  MEMB      70              0.0000000000
     10111        98  DOPC      H18R           12.4668421801        3.9467364575        2.4189184767  MEMB      70              0.0000000000
     10112        98  DOPC      H18S           13.9215481545        4.4091253716        3.4554846148  MEMB      70              0.0000000000
     10113        98  DOPC      H18T           13.8191464540        2.7897025899        2.4445397689  MEMB      70              0.0000000000
     10114        98  DOPC      C33             7.6113731989        5.9862739932       -9.1101967130  MEMB      70              0.0000000000
     10115        98  DOPC      H3X             6.8745746200        6.3910529573       -8.3838341717  MEMB      70              0.0000000000
     10116        98  DOPC      H3Y             7.8929713450        6.8392972301       -9.7639361623  MEMB      70              0.0000000000
     10117        98  DOPC      C34             8.8028851542        5.4752510775       -8.2793046530  MEMB      70              0.0000000000
     10118        98  DOPC      H4X             9.6348794161        5.2728987546       -8.9872312469  MEMB      70              0.0000000000
     10119        98  DOPC      H4Y             8.4693434835        4.5913171534       -7.6947265733  MEMB      70              0.0000000000
     10120        98  DOPC      C35             9.4966772698        6.5827331677       -7.3435104406  MEMB      70              0.0000000000
     10121        98  DOPC      H5X             8.9619771497        6.8320251705       -6.4020915428  MEMB      70              0.0000000000
     10122        98  DOPC      H5Y             9.4840206975        7.5404559004       -7.9064741690  MEMB      70              0.0000000000
     10123        98  DOPC      C36            10.9485713341        6.2113735611       -6.9046728375  MEMB      70              0.0000000000
     10124        98  DOPC      H6X            11.1607661279        5.1281160966       -6.7787849394  MEMB      70              0.0000000000
     10125        98  DOPC      H6Y            11.5924984512        6.7038019825       -7.6644046090  MEMB      70              0.0000000000
     10126        98  DOPC      C37            11.4104934724        6.9614583099       -5.5951845846  MEMB      70              0.0000000000
     10127        98  DOPC      H7X            11.1449822356        6.4793834011       -4.6300798924  MEMB      70              0.0000000000
     10128        98  DOPC      H7Y            12.5106540252        6.8261895200       -5.6704848118  MEMB      70              0.0000000000
     10129        98  DOPC      C38            11.2423588441        8.4759587677       -5.6268385214  MEMB      70              0.0000000000
     10130        98  DOPC      H8X            10.1681817485        8.7230512078       -5.7661570752  MEMB      70              0.0000000000
     10131        98  DOPC      H8Y            11.6209113307        8.8362458896       -6.6072526800  MEMB      70              0.0000000000
     10132        98  DOPC      C39            11.8229986294        9.2005297930       -4.5134518769  MEMB      70              0.0000000000
     10133        98  DOPC      H9X            12.8927473861        9.3959682763       -4.6791060244  MEMB      70              0.0000000000
     10134        98  DOPC      C310           11.3066590170        9.6278163620       -3.3561892337  MEMB      70              0.0000000000
     10135        98  DOPC      H10X           12.0734962648        9.9605347200       -2.6411657200  MEMB      70              0.0000000000
     10136        98  DOPC      C311            9.8765750197        9.4853060058       -2.8036063910  MEMB      70              0.0000000000
     10137        98  DOPC      H11X            9.1306105831        9.6663067629       -3.6067849349  MEMB      70              0.0000000000
     10138        98  DOPC      H11Y            9.8802587175       10.2313544783       -1.9803700909  MEMB      70              0.0000000000
     10139        98  DOPC      C312            9.5603944256        8.0517781513       -2.2353059428  MEMB      70              0.0000000000
     10140        98  DOPC      H12X           10.0722710441        7.9236955317       -1.2576040048  MEMB      70              0.0000000000
     10141        98  DOPC      H12Y            9.8376877724        7.2349855355       -2.9355046512  MEMB      70              0.0000000000
     10142        98  DOPC      C313            8.0405585135        7.9916491451       -2.0578587175  MEMB      70              0.0000000000
     10143        98  DOPC      H13X            7.6615305172        8.9534131749       -1.6508343163  MEMB      70              0.0000000000
     10144        98  DOPC      H13Y            7.6520804026        7.9357816088       -3.0972253189  MEMB      70              0.0000000000
     10145        98  DOPC      C314            7.5267303396        6.8279525838       -1.2794404502  MEMB      70              0.0000000000
     10146        98  DOPC      H14X            7.9119896432        6.8278638458       -0.2373762028  MEMB      70              0.0000000000
     10147        98  DOPC      H14Y            6.4184818446        6.8973532081       -1.3153568722  MEMB      70              0.0000000000
     10148        98  DOPC      C315            7.7994176220        5.3661511025       -1.7781284637  MEMB      70              0.0000000000
     10149        98  DOPC      H15X            8.8935225680        5.1861484954       -1.8478021491  MEMB      70              0.0000000000
     10150        98  DOPC      H15Y            7.3145413520        5.3432429876       -2.7774739130  MEMB      70              0.0000000000
     10151        98  DOPC      C316            7.2010166498        4.4838207560       -0.7382901804  MEMB      70              0.0000000000
     10152        98  DOPC      H16X            6.1448830576        4.7958042302       -0.5914266733  MEMB      70              0.0000000000
     10153        98  DOPC      H16Y            7.0659036362        3.4551595713       -1.1356831617  MEMB      70              0.0000000000
     10154        98  DOPC      C317            7.9843913682        4.3327890723        0.6046492259  MEMB      70              0.0000000000
     10155        98  DOPC      H17X            8.8759532061        3.7228712925        0.3449585265  MEMB      70              0.0000000000
     10156        98  DOPC      H17Y            8.3139340554        5.3124626329        1.0120328047  MEMB      70              0.0000000000
     10157        98  DOPC      C318            7.1978034997        3.7535722942        1.7946244119  MEMB      70              0.0000000000
     10158        98  DOPC      H18X            6.3923689448        4.4939978067        1.9879263380  MEMB      70              0.0000000000
     10159        98  DOPC      H18Y            6.7387737659        2.7562423906        1.6244859725  MEMB      70              0.0000000000
     10160        98  DOPC      H18Z            7.8266390557        3.7143684804        2.7096908665  MEMB      70              0.0000000000
     10161        99  DOPC      N               4.1250008987      -12.1696258671      -20.7068914808  MEMB      71              0.0000000000
     10162        99  DOPC      C12             4.5629152103      -12.3153838418      -19.2897784798  MEMB      71              0.0000000000
     10163        99  DOPC      H12A            5.3310025858      -11.5851165448      -19.0820495307  MEMB      71              0.0000000000
     10164        99  DOPC      H12B            5.1385833920      -13.2290817877      -19.2770329172  MEMB      71              0.0000000000
     10165        99  DOPC      C13             2.8920716502      -11.3133300464      -20.8972374403  MEMB      71              0.0000000000
     10166        99  DOPC      H13A            3.0525610575      -10.4190078619      -20.3134303375  MEMB      71              0.0000000000
     10167        99  DOPC      H13B            2.7612968220      -11.0548917889      -21.9376737139  MEMB      71              0.0000000000
     10168        99  DOPC      H13C            2.0832301072      -11.9631043435      -20.5972894416  MEMB      71              0.0000000000
     10169        99  DOPC      C14             3.8572329258      -13.6132343346      -21.2588251905  MEMB      71              0.0000000000
     10170        99  DOPC      H14A            4.6283995362      -14.2901269497      -20.9219000640  MEMB      71              0.0000000000
     10171        99  DOPC      H14B            2.8845568023      -13.8487808405      -20.8528458876  MEMB      71              0.0000000000
     10172        99  DOPC      H14C            3.8616735355      -13.6077183103      -22.3388017748  MEMB      71              0.0000000000
     10173        99  DOPC      C15             5.2919445506      -11.5041048118      -21.4020295846  MEMB      71              0.0000000000
     10174        99  DOPC      H15A            6.1303552208      -12.1684915376      -21.2535115174  MEMB      71              0.0000000000
     10175        99  DOPC      H15B            5.4444039556      -10.5301889956      -20.9608449730  MEMB      71              0.0000000000
     10176        99  DOPC      H15C            5.1158333998      -11.5246658801      -22.4673756218  MEMB      71              0.0000000000
     10177        99  DOPC      C11             3.4837909190      -12.3298579340      -18.1087754844  MEMB      71              0.0000000000
     10178        99  DOPC      H11A            3.9344077398      -12.7430381064      -17.1811184535  MEMB      71              0.0000000000
     10179        99  DOPC      H11B            3.0937177349      -11.3090205421      -17.9086383463  MEMB      71              0.0000000000
     10180        99  DOPC      P               1.4027885224      -13.6611529616      -17.4615574620  MEMB      71              0.0000000000
     10181        99  DOPC      O13             0.5079036853      -14.5750950231      -18.2014569063  MEMB      71              0.0000000000
     10182        99  DOPC      O14             0.8376794139      -12.6704595709      -16.5833789399  MEMB      71              0.0000000000
     10183        99  DOPC      O12             2.3315172108      -12.9695446176      -18.5455591616  MEMB      71              0.0000000000
     10184        99  DOPC      O11             2.3986959930      -14.4369788912      -16.5445098646  MEMB      71              0.0000000000
     10185        99  DOPC      C1              2.8570878937      -15.6836155366      -16.8714828456  MEMB      71              0.0000000000
     10186        99  DOPC      HA              3.6079874036      -15.5913184608      -17.6850872066  MEMB      71              0.0000000000
     10187        99  DOPC      HB              1.9947635480      -16.3023676558      -17.1999081963  MEMB      71              0.0000000000
     10188        99  DOPC      C2              3.6167992321      -16.3310413481      -15.6653976609  MEMB      71              0.0000000000
     10189        99  DOPC      HS              3.7766687693      -17.4288375365      -15.7254493062  MEMB      71              0.0000000000
     10190        99  DOPC      O21             2.7420489533      -16.0508918248      -14.5505438460  MEMB      71              0.0000000000
     10191        99  DOPC      C21             3.0477914754      -16.5965040787      -13.3531374230  MEMB      71              0.0000000000
     10192        99  DOPC      O22             4.0559828190      -17.2449417250      -13.1264206099  MEMB      71              0.0000000000
     10193        99  DOPC      C22             2.0682262486      -16.1781229973      -12.2510243380  MEMB      71              0.0000000000
     10194        99  DOPC      H2R             1.0280116837      -16.2492409972      -12.6347129447  MEMB      71              0.0000000000
     10195        99  DOPC      H2S             2.1942080977      -15.1018288107      -12.0059928108  MEMB      71              0.0000000000
     10196        99  DOPC      C3              5.0278373155      -15.7197886669      -15.4284111971  MEMB      71              0.0000000000
     10197        99  DOPC      HX              5.6666533090      -15.9060616021      -16.3180952256  MEMB      71              0.0000000000
     10198        99  DOPC      HY              5.5898879864      -16.2089076070      -14.6042855116  MEMB      71              0.0000000000
     10199        99  DOPC      O31             4.9564659914      -14.3080602268      -15.2712899563  MEMB      71              0.0000000000
     10200        99  DOPC      C31             4.7953555237      -13.8273137139      -14.0695674432  MEMB      71              0.0000000000
     10201        99  DOPC      O32             4.8603510611      -14.4532038077      -13.0247094743  MEMB      71              0.0000000000
     10202        99  DOPC      C32             4.5273162709      -12.3586700808      -14.1122753485  MEMB      71              0.0000000000
     10203        99  DOPC      H2X             5.5181618072      -11.9080709472      -14.3347764433  MEMB      71              0.0000000000
     10204        99  DOPC      H2Y             3.8928269603      -12.1248485044      -14.9937920165  MEMB      71              0.0000000000
     10205        99  DOPC      C23             2.2772769889      -17.0746302478      -11.0318552589  MEMB      71              0.0000000000
     10206        99  DOPC      H3R             2.3313638417      -18.0829586073      -11.4951799992  MEMB      71              0.0000000000
     10207        99  DOPC      H3S             1.3274583432      -16.9531660460      -10.4684613580  MEMB      71              0.0000000000
     10208        99  DOPC      C24             3.4429377902      -16.8133885236      -10.0052253875  MEMB      71              0.0000000000
     10209        99  DOPC      H4R             4.3283599630      -16.5054646845      -10.6014901840  MEMB      71              0.0000000000
     10210        99  DOPC      H4S             3.5037524163      -17.8175962595       -9.5338557738  MEMB      71              0.0000000000
     10211        99  DOPC      C25             3.2261647477      -15.6403652362       -8.9932959707  MEMB      71              0.0000000000
     10212        99  DOPC      H5R             2.2653733514      -15.8263092489       -8.4673439868  MEMB      71              0.0000000000
     10213        99  DOPC      H5S             3.0268970841      -14.6854902364       -9.5251117622  MEMB      71              0.0000000000
     10214        99  DOPC      C26             4.4389817077      -15.3782169699       -8.0916320896  MEMB      71              0.0000000000
     10215        99  DOPC      H6R             4.8464610020      -16.2789807589       -7.5847722038  MEMB      71              0.0000000000
     10216        99  DOPC      H6S             4.1033415601      -14.6669027007       -7.3069667183  MEMB      71              0.0000000000
     10217        99  DOPC      C27             5.6120066502      -14.6201967081       -8.8270217290  MEMB      71              0.0000000000
     10218        99  DOPC      H7R             5.3234448682      -13.6825667670       -9.3484644281  MEMB      71              0.0000000000
     10219        99  DOPC      H7S             5.9375409699      -15.2342881507       -9.6937626533  MEMB      71              0.0000000000
     10220        99  DOPC      C28             6.8353494745      -14.3578653633       -7.8243310328  MEMB      71              0.0000000000
     10221        99  DOPC      H8R             7.6528814712      -14.0738434847       -8.5209623576  MEMB      71              0.0000000000
     10222        99  DOPC      H8S             7.1283196314      -15.2836470787       -7.2844996515  MEMB      71              0.0000000000
     10223        99  DOPC      C29             6.4966903572      -13.2929876404       -6.7845458387  MEMB      71              0.0000000000
     10224        99  DOPC      H9R             6.3137579908      -12.3126695679       -7.2487786725  MEMB      71              0.0000000000
     10225        99  DOPC      C210            6.2478000580      -13.4146782432       -5.4562864390  MEMB      71              0.0000000000
     10226        99  DOPC      H10R            6.0758813671      -12.4770162702       -4.9074382313  MEMB      71              0.0000000000
     10227        99  DOPC      C211            6.2663489389      -14.6583351626       -4.5835948014  MEMB      71              0.0000000000
     10228        99  DOPC      H11R            6.9918614354      -14.5335169388       -3.7515046334  MEMB      71              0.0000000000
     10229        99  DOPC      H11S            6.4890211683      -15.4947846932       -5.2800788751  MEMB      71              0.0000000000
     10230        99  DOPC      C212            4.8899506075      -14.9414181551       -3.8948708472  MEMB      71              0.0000000000
     10231        99  DOPC      H12R            4.0551185887      -15.1778985337       -4.5887386208  MEMB      71              0.0000000000
     10232        99  DOPC      H12S            4.6540575449      -13.9658797817       -3.4184252226  MEMB      71              0.0000000000
     10233        99  DOPC      C213            4.9407673034      -15.9901710011       -2.8158349544  MEMB      71              0.0000000000
     10234        99  DOPC      H13R            5.8054805781      -15.7822890155       -2.1499695243  MEMB      71              0.0000000000
     10235        99  DOPC      H13S            5.0561514235      -17.0367835266       -3.1702500036  MEMB      71              0.0000000000
     10236        99  DOPC      C214            3.6565168211      -15.9590011789       -1.9589943896  MEMB      71              0.0000000000
     10237        99  DOPC      H14R            2.7434674936      -16.0507981209       -2.5852815933  MEMB      71              0.0000000000
     10238        99  DOPC      H14S            3.5084974562      -14.9715930080       -1.4717200243  MEMB      71              0.0000000000
     10239        99  DOPC      C215            3.7058409645      -17.0121324501       -0.7857308356  MEMB      71              0.0000000000
     10240        99  DOPC      H15R            4.7390552030      -17.0912987512       -0.3850790301  MEMB      71              0.0000000000
     10241        99  DOPC      H15S            3.5481217279      -17.8702427422       -1.4735478286  MEMB      71              0.0000000000
     10242        99  DOPC      C216            2.6618387320      -16.8234596464        0.2939628869  MEMB      71              0.0000000000
     10243        99  DOPC      H16R            2.3183311084      -17.8343461658        0.6012592396  MEMB      71              0.0000000000
     10244        99  DOPC      H16S            1.8244302463      -16.2617621333       -0.1724745866  MEMB      71              0.0000000000
     10245        99  DOPC      C217            3.1556723657      -16.0192675444        1.5154088086  MEMB      71              0.0000000000
     10246        99  DOPC      H17R            3.5554966508      -15.0418614481        1.1702429896  MEMB      71              0.0000000000
     10247        99  DOPC      H17S            4.0086748605      -16.6307799367        1.8797701813  MEMB      71              0.0000000000
     10248        99  DOPC      C218            2.0270720887      -15.7120201819        2.5688415831  MEMB      71              0.0000000000
     10249        99  DOPC      H18R            2.4450587335      -15.5228698435        3.5806869582  MEMB      71              0.0000000000
     10250        99  DOPC      H18S            1.4512033533      -16.6450091439        2.7483634247  MEMB      71              0.0000000000
     10251        99  DOPC      H18T            1.5142580121      -14.7924564166        2.2142360001  MEMB      71              0.0000000000
     10252        99  DOPC      C33             4.1908289876      -11.7588279044      -12.7302842637  MEMB      71              0.0000000000
     10253        99  DOPC      H3X             5.0700811353      -11.8675902990      -12.0599059105  MEMB      71              0.0000000000
     10254        99  DOPC      H3Y             3.3772812945      -12.2334617207      -12.1410612252  MEMB      71              0.0000000000
     10255        99  DOPC      C34             3.7670093562      -10.3269434673      -12.8609094533  MEMB      71              0.0000000000
     10256        99  DOPC      H4X             3.0410459400      -10.0808774137      -13.6651167599  MEMB      71              0.0000000000
     10257        99  DOPC      H4Y             4.6460112162       -9.6806639045      -13.0706699815  MEMB      71              0.0000000000
     10258        99  DOPC      C35             3.0364713589       -9.7269996774      -11.6243249945  MEMB      71              0.0000000000
     10259        99  DOPC      H5X             2.0283752895      -10.1892392020      -11.5580082039  MEMB      71              0.0000000000
     10260        99  DOPC      H5Y             2.8181323591       -8.6407199140      -11.7058440153  MEMB      71              0.0000000000
     10261        99  DOPC      C36             3.7089965975      -10.1024749404      -10.2514551076  MEMB      71              0.0000000000
     10262        99  DOPC      H6X             3.5210494963      -11.1872503478      -10.1022608184  MEMB      71              0.0000000000
     10263        99  DOPC      H6Y             4.8126174544       -9.9781517964      -10.2216939000  MEMB      71              0.0000000000
     10264        99  DOPC      C37             3.1001983996       -9.3225860742       -9.1185639500  MEMB      71              0.0000000000
     10265        99  DOPC      H7X             3.2447176605       -8.2447885426       -9.3461321515  MEMB      71              0.0000000000
     10266        99  DOPC      H7Y             2.0115941207       -9.5429855124       -9.0923836201  MEMB      71              0.0000000000
     10267        99  DOPC      C38             3.8134880323       -9.6261051799       -7.8040615259  MEMB      71              0.0000000000
     10268        99  DOPC      H8X             3.5340600769       -8.9166943974       -6.9959909643  MEMB      71              0.0000000000
     10269        99  DOPC      H8Y             4.8941011246       -9.5132651032       -8.0361460736  MEMB      71              0.0000000000
     10270        99  DOPC      C39             3.5905565472      -11.0763299088       -7.3579958397  MEMB      71              0.0000000000
     10271        99  DOPC      H9X             4.0678658588      -11.8157723327       -8.0178451740  MEMB      71              0.0000000000
     10272        99  DOPC      C310            2.8129087690      -11.5791913692       -6.3488708472  MEMB      71              0.0000000000
     10273        99  DOPC      H10X            2.7552873547      -12.6707505733       -6.2256717929  MEMB      71              0.0000000000
     10274        99  DOPC      C311            1.9487192390      -10.7434839790       -5.4804136509  MEMB      71              0.0000000000
     10275        99  DOPC      H11X            0.8842988742      -11.0601089261       -5.5132639170  MEMB      71              0.0000000000
     10276        99  DOPC      H11Y            1.9848150958       -9.7653083461       -6.0059522856  MEMB      71              0.0000000000
     10277        99  DOPC      C312            2.4544301707      -10.5895555381       -4.0918900672  MEMB      71              0.0000000000
     10278        99  DOPC      H12X            1.6985025962       -9.9181788750       -3.6312944048  MEMB      71              0.0000000000
     10279        99  DOPC      H12Y            3.4717316970      -10.1460120060       -4.1437332544  MEMB      71              0.0000000000
     10280        99  DOPC      C313            2.4273246837      -11.8227625473       -3.1920189393  MEMB      71              0.0000000000
     10281        99  DOPC      H13X            1.3812774713      -12.1860465932       -3.1018482971  MEMB      71              0.0000000000
     10282        99  DOPC      H13Y            3.0466225972      -12.6998923874       -3.4773866035  MEMB      71              0.0000000000
     10283        99  DOPC      C314            3.0538767205      -11.5368038968       -1.8106352404  MEMB      71              0.0000000000
     10284        99  DOPC      H14X            2.2524190904      -11.0163755115       -1.2439429161  MEMB      71              0.0000000000
     10285        99  DOPC      H14Y            3.2604822246      -12.5280035578       -1.3532967233  MEMB      71              0.0000000000
     10286        99  DOPC      C315            4.4005368843      -10.6958660539       -1.7811929224  MEMB      71              0.0000000000
     10287        99  DOPC      H15X            4.8049738382      -10.8521693790       -0.7582943925  MEMB      71              0.0000000000
     10288        99  DOPC      H15Y            4.3761567806       -9.5851816702       -1.7708460059  MEMB      71              0.0000000000
     10289        99  DOPC      C316            5.6000450686      -11.2323420610       -2.6207229844  MEMB      71              0.0000000000
     10290        99  DOPC      H16X            5.5018258339      -12.2967285431       -2.9236337595  MEMB      71              0.0000000000
     10291        99  DOPC      H16Y            5.6978885592      -10.6724546034       -3.5753295925  MEMB      71              0.0000000000
     10292        99  DOPC      C317            6.9315257899      -10.9118733411       -1.9480721739  MEMB      71              0.0000000000
     10293        99  DOPC      H17X            7.6746259413      -10.8711689156       -2.7729751391  MEMB      71              0.0000000000
     10294        99  DOPC      H17Y            6.8504780325       -9.8544053413       -1.6171430913  MEMB      71              0.0000000000
     10295        99  DOPC      C318            7.3798584840      -11.8472871637       -0.8357366170  MEMB      71              0.0000000000
     10296        99  DOPC      H18X            8.3730422716      -11.5256455797       -0.4556667512  MEMB      71              0.0000000000
     10297        99  DOPC      H18Y            6.6704927242      -11.7577714571        0.0146205789  MEMB      71              0.0000000000
     10298        99  DOPC      H18Z            7.5559506798      -12.8852785081       -1.1905414673  MEMB      71              0.0000000000
     10299       100  DOPC      N             -13.1074523507        1.4402059995      -20.4967911581  MEMB      72              0.0000000000
     10300       100  DOPC      C12           -12.9189345070        1.4046098022      -18.9431203162  MEMB      72              0.0000000000
     10301       100  DOPC      H12A          -13.6405146829        0.7530365088      -18.4728284754  MEMB      72              0.0000000000
     10302       100  DOPC      H12B          -13.1978613177        2.4044537820      -18.6449393318  MEMB      72              0.0000000000
     10303       100  DOPC      C13           -13.1578094580        0.0614200375      -21.0932143889  MEMB      72              0.0000000000
     10304       100  DOPC      H13A          -13.8623740823       -0.5975740388      -20.6077086372  MEMB      72              0.0000000000
     10305       100  DOPC      H13B          -13.4094230735        0.1624383453      -22.1386261484  MEMB      72              0.0000000000
     10306       100  DOPC      H13C          -12.2313369348       -0.4533925218      -20.8858097152  MEMB      72              0.0000000000
     10307       100  DOPC      C14           -12.0024887060        2.3131546321      -21.0627595886  MEMB      72              0.0000000000
     10308       100  DOPC      H14A          -11.0291138697        1.8571937174      -20.9576833526  MEMB      72              0.0000000000
     10309       100  DOPC      H14B          -11.9798511828        2.5632135208      -22.1131680963  MEMB      72              0.0000000000
     10310       100  DOPC      H14C          -11.9631997969        3.1820087520      -20.4224870864  MEMB      72              0.0000000000
     10311       100  DOPC      C15           -14.4213955615        2.1429276479      -20.8797279178  MEMB      72              0.0000000000
     10312       100  DOPC      H15A          -14.0841180558        3.1525706315      -21.0621148530  MEMB      72              0.0000000000
     10313       100  DOPC      H15B          -15.1194325613        2.1403555078      -20.0556296665  MEMB      72              0.0000000000
     10314       100  DOPC      H15C          -14.8491324324        1.7492277047      -21.7899154550  MEMB      72              0.0000000000
     10315       100  DOPC      C11           -11.5813151090        0.9987058876      -18.3753021474  MEMB      72              0.0000000000
     10316       100  DOPC      H11A          -11.9317470543        0.7369997391      -17.3540146148  MEMB      72              0.0000000000
     10317       100  DOPC      H11B          -11.1800203227        0.1484919584      -18.9672648036  MEMB      72              0.0000000000
     10318       100  DOPC      P              -9.9565970084        2.9661017151      -17.6037610826  MEMB      72              0.0000000000
     10319       100  DOPC      O13            -9.2297513242        3.9990332820      -18.4115910772  MEMB      72              0.0000000000
     10320       100  DOPC      O14            -9.2601837472        2.2374097027      -16.5386479565  MEMB      72              0.0000000000
     10321       100  DOPC      O12           -10.6507931612        2.0081238403      -18.5880599720  MEMB      72              0.0000000000
     10322       100  DOPC      O11           -11.2286802695        3.6890484686      -17.0070243995  MEMB      72              0.0000000000
     10323       100  DOPC      C1            -11.8477637514        4.7527179557      -17.7275231120  MEMB      72              0.0000000000
     10324       100  DOPC      HA            -12.2994369992        4.4861918737      -18.7069494947  MEMB      72              0.0000000000
     10325       100  DOPC      HB            -11.1505217269        5.6003116937      -17.9000316517  MEMB      72              0.0000000000
     10326       100  DOPC      C2            -12.9655901560        5.3856219457      -16.8111938850  MEMB      72              0.0000000000
     10327       100  DOPC      HS            -13.1489788708        6.4397617580      -17.1103238806  MEMB      72              0.0000000000
     10328       100  DOPC      O21           -12.6533671604        5.3896195867      -15.3401483665  MEMB      72              0.0000000000
     10329       100  DOPC      C21           -11.5251450057        5.9260882296      -15.0049120664  MEMB      72              0.0000000000
     10330       100  DOPC      O22           -10.8656550991        6.8052779700      -15.5572307498  MEMB      72              0.0000000000
     10331       100  DOPC      C22           -11.1065004614        5.5172358825      -13.6230038917  MEMB      72              0.0000000000
     10332       100  DOPC      H2R           -10.1245267005        5.9372179146      -13.3169585481  MEMB      72              0.0000000000
     10333       100  DOPC      H2S           -11.1228996763        4.4079845185      -13.5628885855  MEMB      72              0.0000000000
     10334       100  DOPC      C3            -14.2898400866        4.6571486975      -17.1001074316  MEMB      72              0.0000000000
     10335       100  DOPC      HX            -14.5225100834        4.7108727673      -18.1851417755  MEMB      72              0.0000000000
     10336       100  DOPC      HY            -15.1633771808        5.1623757594      -16.6353503901  MEMB      72              0.0000000000
     10337       100  DOPC      O31           -14.2800538012        3.3189443708      -16.7142644023  MEMB      72              0.0000000000
     10338       100  DOPC      C31           -14.9602971914        3.0002311499      -15.6319056279  MEMB      72              0.0000000000
     10339       100  DOPC      O32           -15.5280805891        3.7130539368      -14.8697852673  MEMB      72              0.0000000000
     10340       100  DOPC      C32           -14.8864661889        1.4439426601      -15.3867712123  MEMB      72              0.0000000000
     10341       100  DOPC      H2X           -15.8326670701        1.0748901336      -14.9364103299  MEMB      72              0.0000000000
     10342       100  DOPC      H2Y           -14.6356755894        0.8416216728      -16.2860122635  MEMB      72              0.0000000000
     10343       100  DOPC      C23           -12.1055479491        5.9282582315      -12.5207144819  MEMB      72              0.0000000000
     10344       100  DOPC      H3R           -12.5762588257        6.9339796418      -12.5564506412  MEMB      72              0.0000000000
     10345       100  DOPC      H3S           -11.5184295964        6.0246608279      -11.5824609694  MEMB      72              0.0000000000
     10346       100  DOPC      C24           -13.2289910557        4.8707789982      -12.2581691550  MEMB      72              0.0000000000
     10347       100  DOPC      H4R           -12.7897117682        3.9736141012      -11.7719085125  MEMB      72              0.0000000000
     10348       100  DOPC      H4S           -13.5024181366        4.4830965195      -13.2627889396  MEMB      72              0.0000000000
     10349       100  DOPC      C25           -14.4962452867        5.3414317222      -11.5664160255  MEMB      72              0.0000000000
     10350       100  DOPC      H5R           -15.0563138487        6.1519194559      -12.0799854596  MEMB      72              0.0000000000
     10351       100  DOPC      H5S           -14.1417636203        5.7169843053      -10.5827375979  MEMB      72              0.0000000000
     10352       100  DOPC      C26           -15.5609975865        4.2067458774      -11.2924859195  MEMB      72              0.0000000000
     10353       100  DOPC      H6R           -15.8812904298        3.7362216196      -12.2466035098  MEMB      72              0.0000000000
     10354       100  DOPC      H6S           -16.4460874094        4.7884077193      -10.9569158201  MEMB      72              0.0000000000
     10355       100  DOPC      C27           -15.2968163380        3.4140454010      -10.0424219789  MEMB      72              0.0000000000
     10356       100  DOPC      H7R           -15.2457052456        4.1626621953       -9.2231042800  MEMB      72              0.0000000000
     10357       100  DOPC      H7S           -14.3145222943        2.9078943322      -10.1574489279  MEMB      72              0.0000000000
     10358       100  DOPC      C28           -16.3027252579        2.2789192001       -9.6707929621  MEMB      72              0.0000000000
     10359       100  DOPC      H8R           -16.6468740622        1.7163787917      -10.5649014908  MEMB      72              0.0000000000
     10360       100  DOPC      H8S           -17.2394086596        2.7516317629       -9.3054330276  MEMB      72              0.0000000000
     10361       100  DOPC      C29           -15.7256529022        1.3998149306       -8.5368878344  MEMB      72              0.0000000000
     10362       100  DOPC      H9R           -15.3308301132        0.4169894434       -8.8338204731  MEMB      72              0.0000000000
     10363       100  DOPC      C210          -15.7265669261        1.6534751196       -7.2213255414  MEMB      72              0.0000000000
     10364       100  DOPC      H10R          -15.3130019307        1.0288828721       -6.4158141303  MEMB      72              0.0000000000
     10365       100  DOPC      C211          -16.2879037935        2.9688665393       -6.7560016948  MEMB      72              0.0000000000
     10366       100  DOPC      H11R          -17.2647638423        2.8223315472       -6.2474817450  MEMB      72              0.0000000000
     10367       100  DOPC      H11S          -16.4857308498        3.7911998931       -7.4763863677  MEMB      72              0.0000000000
     10368       100  DOPC      C212          -15.2955670867        3.7703258850       -5.7924434465  MEMB      72              0.0000000000
     10369       100  DOPC      H12R          -14.4418220831        4.1461179546       -6.3959511368  MEMB      72              0.0000000000
     10370       100  DOPC      H12S          -14.9057814317        3.0398371957       -5.0516505430  MEMB      72              0.0000000000
     10371       100  DOPC      C213          -15.9973479651        4.7971082678       -4.9413321471  MEMB      72              0.0000000000
     10372       100  DOPC      H13R          -16.5678422025        4.2240297868       -4.1794672713  MEMB      72              0.0000000000
     10373       100  DOPC      H13S          -16.6867860394        5.4916972283       -5.4672050647  MEMB      72              0.0000000000
     10374       100  DOPC      C214          -15.0261972968        5.6846967759       -4.2126916300  MEMB      72              0.0000000000
     10375       100  DOPC      H14R          -15.6516388582        6.4951547981       -3.7810649266  MEMB      72              0.0000000000
     10376       100  DOPC      H14S          -14.3702669881        6.2899027242       -4.8743579061  MEMB      72              0.0000000000
     10377       100  DOPC      C215          -14.2150361421        5.0170797666       -3.1107320983  MEMB      72              0.0000000000
     10378       100  DOPC      H15R          -13.6834307331        4.1181719099       -3.4897846522  MEMB      72              0.0000000000
     10379       100  DOPC      H15S          -14.8642314937        4.6246333224       -2.2990349906  MEMB      72              0.0000000000
     10380       100  DOPC      C216          -13.1464786285        5.9318752529       -2.4967202576  MEMB      72              0.0000000000
     10381       100  DOPC      H16R          -13.5725238095        6.2942993354       -1.5367954820  MEMB      72              0.0000000000
     10382       100  DOPC      H16S          -13.1461477544        6.7861167097       -3.2070671275  MEMB      72              0.0000000000
     10383       100  DOPC      C217          -11.7305421071        5.3569206946       -2.2376608144  MEMB      72              0.0000000000
     10384       100  DOPC      H17R          -11.5188926044        5.0434539322       -3.2822957386  MEMB      72              0.0000000000
     10385       100  DOPC      H17S          -11.7497253935        4.4271479697       -1.6298145349  MEMB      72              0.0000000000
     10386       100  DOPC      C218          -10.7774540318        6.3260546423       -1.5539126316  MEMB      72              0.0000000000
     10387       100  DOPC      H18R           -9.7011424072        6.0824188785       -1.6824264751  MEMB      72              0.0000000000
     10388       100  DOPC      H18S          -11.0389944205        6.3451680905       -0.4743037614  MEMB      72              0.0000000000
     10389       100  DOPC      H18T          -10.9834252380        7.3437807455       -1.9490446262  MEMB      72              0.0000000000
     10390       100  DOPC      C33           -13.7904565555        1.1764564120      -14.2680816993  MEMB      72              0.0000000000
     10391       100  DOPC      H3X           -14.1609718063        1.7339633541      -13.3813884870  MEMB      72              0.0000000000
     10392       100  DOPC      H3Y           -12.8666728883        1.6942093354      -14.6040528157  MEMB      72              0.0000000000
     10393       100  DOPC      C34           -13.4654511375       -0.2794311724      -13.9422882287  MEMB      72              0.0000000000
     10394       100  DOPC      H4X           -13.0827848894       -0.6654588432      -14.9112415220  MEMB      72              0.0000000000
     10395       100  DOPC      H4Y           -14.4925098313       -0.6658149687      -13.7685675707  MEMB      72              0.0000000000
     10396       100  DOPC      C35           -12.5111657515       -0.4424813788      -12.7249850491  MEMB      72              0.0000000000
     10397       100  DOPC      H5X           -11.5846400603        0.1409693050      -12.9132835930  MEMB      72              0.0000000000
     10398       100  DOPC      H5Y           -12.2686275853       -1.5216570454      -12.6206965530  MEMB      72              0.0000000000
     10399       100  DOPC      C36           -12.8533468393        0.0491286549      -11.3302457614  MEMB      72              0.0000000000
     10400       100  DOPC      H6X           -13.1176499026        1.1280750023      -11.3486725004  MEMB      72              0.0000000000
     10401       100  DOPC      H6Y           -13.6389193803       -0.5817302740      -10.8620426722  MEMB      72              0.0000000000
     10402       100  DOPC      C37           -11.7583198635       -0.1724898033      -10.3451864929  MEMB      72              0.0000000000
     10403       100  DOPC      H7X           -10.7836234200        0.0203298719      -10.8422863073  MEMB      72              0.0000000000
     10404       100  DOPC      H7Y           -11.8994285496        0.6444707613       -9.6056018093  MEMB      72              0.0000000000
     10405       100  DOPC      C38           -11.6807767373       -1.6350208377       -9.7881406140  MEMB      72              0.0000000000
     10406       100  DOPC      H8X           -10.7032631897       -1.7124028991       -9.2658382996  MEMB      72              0.0000000000
     10407       100  DOPC      H8Y           -11.4887350574       -2.3767981344      -10.5926332897  MEMB      72              0.0000000000
     10408       100  DOPC      C39           -12.8310834348       -2.0927494724       -8.9297142315  MEMB      72              0.0000000000
     10409       100  DOPC      H9X           -13.8637173516       -1.8823097438       -9.2449638866  MEMB      72              0.0000000000
     10410       100  DOPC      C310          -12.7349715873       -2.8455744256       -7.8311014355  MEMB      72              0.0000000000
     10411       100  DOPC      H10X          -13.6088400030       -3.2460689560       -7.2963513308  MEMB      72              0.0000000000
     10412       100  DOPC      C311          -11.4701607841       -3.3894704615       -7.1635653261  MEMB      72              0.0000000000
     10413       100  DOPC      H11X          -10.6044160637       -3.3582525702       -7.8591460107  MEMB      72              0.0000000000
     10414       100  DOPC      H11Y          -11.6739735071       -4.4686091007       -6.9955161159  MEMB      72              0.0000000000
     10415       100  DOPC      C312          -10.9397476661       -2.5487933469       -5.9521265306  MEMB      72              0.0000000000
     10416       100  DOPC      H12X           -9.8418964854       -2.7183000211       -5.9344880288  MEMB      72              0.0000000000
     10417       100  DOPC      H12Y          -11.5785422611       -2.8848371052       -5.1075336379  MEMB      72              0.0000000000
     10418       100  DOPC      C313          -11.0534011288       -0.9869368581       -6.1112823257  MEMB      72              0.0000000000
     10419       100  DOPC      H13X          -10.4945461207       -0.7782197982       -7.0485332666  MEMB      72              0.0000000000
     10420       100  DOPC      H13Y          -12.1254655025       -0.7015550357       -6.1709149449  MEMB      72              0.0000000000
     10421       100  DOPC      C314          -10.3198643286       -0.1076718520       -5.0570427814  MEMB      72              0.0000000000
     10422       100  DOPC      H14X           -9.2662563641       -0.4054574590       -4.8684827565  MEMB      72              0.0000000000
     10423       100  DOPC      H14Y          -10.1191554522        0.9127942566       -5.4477930736  MEMB      72              0.0000000000
     10424       100  DOPC      C315          -11.0934009886        0.0434726285       -3.8226691255  MEMB      72              0.0000000000
     10425       100  DOPC      H15X          -10.3852738852        0.6557523065       -3.2243457961  MEMB      72              0.0000000000
     10426       100  DOPC      H15Y          -11.3428280148       -0.9208549844       -3.3305515858  MEMB      72              0.0000000000
     10427       100  DOPC      C316          -12.3784160980        0.8652256686       -3.9518049818  MEMB      72              0.0000000000
     10428       100  DOPC      H16X          -12.0587617759        1.9288692975       -3.9801648586  MEMB      72              0.0000000000
     10429       100  DOPC      H16Y          -13.0259272467        0.6511874002       -4.8288674650  MEMB      72              0.0000000000
     10430       100  DOPC      C317          -13.2930836950        0.7004108958       -2.5985458874  MEMB      72              0.0000000000
     10431       100  DOPC      H17X          -14.1620551479        1.3132820161       -2.9204126157  MEMB      72              0.0000000000
     10432       100  DOPC      H17Y          -13.7185896294       -0.3106673419       -2.4225166283  MEMB      72              0.0000000000
     10433       100  DOPC      C318          -12.7701143597        1.2623873388       -1.2204508028  MEMB      72              0.0000000000
     10434       100  DOPC      H18X          -13.5943111208        1.2230623032       -0.4764916602  MEMB      72              0.0000000000
     10435       100  DOPC      H18Y          -12.0189750491        0.5732754461       -0.7785954383  MEMB      72              0.0000000000
     10436       100  DOPC      H18Z          -12.3574412656        2.2766826892       -1.4081391647  MEMB      72              0.0000000000
     10437       101  DOPC      N             -12.0282891638       -8.9429459311      -19.7629163355  MEMB      73              0.0000000000
     10438       101  DOPC      C12           -13.2250432747       -9.1523580069      -18.9168836206  MEMB      73              0.0000000000
     10439       101  DOPC      H12A          -13.0434766747      -10.0817552471      -18.3976009942  MEMB      73              0.0000000000
     10440       101  DOPC      H12B          -14.0680019203       -9.0314099452      -19.5811067023  MEMB      73              0.0000000000
     10441       101  DOPC      C13           -11.8246274481      -10.3350168427      -20.4271981326  MEMB      73              0.0000000000
     10442       101  DOPC      H13A          -12.7658043770      -10.5485267982      -20.9119655347  MEMB      73              0.0000000000
     10443       101  DOPC      H13B          -11.0516064799      -10.3062015146      -21.1808612432  MEMB      73              0.0000000000
     10444       101  DOPC      H13C          -11.6390703213      -11.0986063275      -19.6863205347  MEMB      73              0.0000000000
     10445       101  DOPC      C14           -10.8654812748       -8.5993817608      -18.9222716868  MEMB      73              0.0000000000
     10446       101  DOPC      H14A          -10.7826764817       -7.5672871602      -18.6151492142  MEMB      73              0.0000000000
     10447       101  DOPC      H14B          -10.7892710968       -9.2938106386      -18.0986451699  MEMB      73              0.0000000000
     10448       101  DOPC      H14C           -9.9912843319       -8.7621143797      -19.5352137541  MEMB      73              0.0000000000
     10449       101  DOPC      C15           -12.2417734998       -7.9088664908      -20.8204714993  MEMB      73              0.0000000000
     10450       101  DOPC      H15A          -12.9237456601       -8.3127038451      -21.5541128239  MEMB      73              0.0000000000
     10451       101  DOPC      H15B          -11.3113923424       -7.7193703348      -21.3351384422  MEMB      73              0.0000000000
     10452       101  DOPC      H15C          -12.6457269141       -7.0272099326      -20.3451787182  MEMB      73              0.0000000000
     10453       101  DOPC      C11           -13.4219037947       -8.1382913601      -17.7797800839  MEMB      73              0.0000000000
     10454       101  DOPC      H11A          -14.3566679888       -8.3677334635      -17.2248988809  MEMB      73              0.0000000000
     10455       101  DOPC      H11B          -12.5583793968       -8.2092009615      -17.0843533425  MEMB      73              0.0000000000
     10456       101  DOPC      P             -14.5482130354       -5.7880757927      -18.5801440713  MEMB      73              0.0000000000
     10457       101  DOPC      O13           -15.6137197157       -6.6209518060      -19.1865040207  MEMB      73              0.0000000000
     10458       101  DOPC      O14           -14.0354660243       -4.5443791708      -19.1863944448  MEMB      73              0.0000000000
     10459       101  DOPC      O12           -13.3407587321       -6.7964199130      -18.2422811076  MEMB      73              0.0000000000
     10460       101  DOPC      O11           -15.1438571402       -5.4501286497      -17.1751550013  MEMB      73              0.0000000000
     10461       101  DOPC      C1            -14.7650550004       -4.3287449532      -16.3752886432  MEMB      73              0.0000000000
     10462       101  DOPC      HA            -15.4561997825       -3.4772330237      -16.5529611982  MEMB      73              0.0000000000
     10463       101  DOPC      HB            -13.7298682517       -3.9332521687      -16.4546287749  MEMB      73              0.0000000000
     10464       101  DOPC      C2            -14.9536229186       -4.6121627798      -14.9035164061  MEMB      73              0.0000000000
     10465       101  DOPC      HS            -14.5459688283       -3.7258695411      -14.3718931340  MEMB      73              0.0000000000
     10466       101  DOPC      O21           -14.2442472740       -5.7549396340      -14.4495018698  MEMB      73              0.0000000000
     10467       101  DOPC      C21           -13.0178725427       -5.5989197073      -14.2605951909  MEMB      73              0.0000000000
     10468       101  DOPC      O22           -12.3619518597       -4.5685847319      -14.2950451376  MEMB      73              0.0000000000
     10469       101  DOPC      C22           -12.4807251975       -7.0004565079      -14.1764766577  MEMB      73              0.0000000000
     10470       101  DOPC      H2R           -12.5494502330       -7.4131227643      -15.2057017795  MEMB      73              0.0000000000
     10471       101  DOPC      H2S           -13.1617751650       -7.6947374913      -13.6393864234  MEMB      73              0.0000000000
     10472       101  DOPC      C3            -16.4376827075       -4.7320601638      -14.3972794815  MEMB      73              0.0000000000
     10473       101  DOPC      HX            -16.8528072966       -5.6920005642      -14.7721218150  MEMB      73              0.0000000000
     10474       101  DOPC      HY            -16.9733749729       -3.8759375831      -14.8603220510  MEMB      73              0.0000000000
     10475       101  DOPC      O31           -16.6845820095       -4.5619617824      -12.9758423347  MEMB      73              0.0000000000
     10476       101  DOPC      C31           -16.3002429214       -3.4286418071      -12.3518201631  MEMB      73              0.0000000000
     10477       101  DOPC      O32           -15.9171520599       -2.4764691443      -12.9503572287  MEMB      73              0.0000000000
     10478       101  DOPC      C32           -16.5554888692       -3.4696076825      -10.8581776827  MEMB      73              0.0000000000
     10479       101  DOPC      H2X           -16.3283177132       -4.4998682283      -10.5099285076  MEMB      73              0.0000000000
     10480       101  DOPC      H2Y           -15.9545513108       -2.6983425710      -10.3305937445  MEMB      73              0.0000000000
     10481       101  DOPC      C23           -11.0201043756       -7.0302442054      -13.7397440739  MEMB      73              0.0000000000
     10482       101  DOPC      H3R           -10.3393487166       -6.6171942128      -14.5145229117  MEMB      73              0.0000000000
     10483       101  DOPC      H3S           -10.7649282162       -8.1095106054      -13.6734861292  MEMB      73              0.0000000000
     10484       101  DOPC      C24           -10.7493086090       -6.4238962707      -12.3216733378  MEMB      73              0.0000000000
     10485       101  DOPC      H4R           -11.0070034054       -5.3564425856      -12.1529822417  MEMB      73              0.0000000000
     10486       101  DOPC      H4S            -9.6391863901       -6.3940218315      -12.2891662473  MEMB      73              0.0000000000
     10487       101  DOPC      C25           -11.2556988812       -7.1846087444      -11.1253883848  MEMB      73              0.0000000000
     10488       101  DOPC      H5R           -11.4168020834       -8.2616756588      -11.3451465074  MEMB      73              0.0000000000
     10489       101  DOPC      H5S           -12.2677005699       -6.8642565594      -10.7974431161  MEMB      73              0.0000000000
     10490       101  DOPC      C26           -10.3435813776       -7.0920300653       -9.8439699506  MEMB      73              0.0000000000
     10491       101  DOPC      H6R            -9.3013721608       -7.3626624959      -10.1176112489  MEMB      73              0.0000000000
     10492       101  DOPC      H6S           -10.6562739532       -7.8959140427       -9.1437452536  MEMB      73              0.0000000000
     10493       101  DOPC      C27           -10.4011057224       -5.7098834361       -9.1807704641  MEMB      73              0.0000000000
     10494       101  DOPC      H7R           -10.0686344854       -4.8643442395       -9.8201828631  MEMB      73              0.0000000000
     10495       101  DOPC      H7S            -9.6426847180       -5.7704266797       -8.3711694622  MEMB      73              0.0000000000
     10496       101  DOPC      C28           -11.8377510777       -5.2809010626       -8.6974866913  MEMB      73              0.0000000000
     10497       101  DOPC      H8R           -12.6231523828       -5.1998697055       -9.4790876736  MEMB      73              0.0000000000
     10498       101  DOPC      H8S           -11.8126030629       -4.2598054980       -8.2603914107  MEMB      73              0.0000000000
     10499       101  DOPC      C29           -12.4619920778       -6.2641427067       -7.6938018061  MEMB      73              0.0000000000
     10500       101  DOPC      H9R           -13.2041618235       -6.9899996930       -8.0575542736  MEMB      73              0.0000000000
     10501       101  DOPC      C210          -12.4319143793       -6.1491471244       -6.2982043919  MEMB      73              0.0000000000
     10502       101  DOPC      H10R          -12.7265910160       -6.9919202680       -5.6556321436  MEMB      73              0.0000000000
     10503       101  DOPC      C211          -11.8191812209       -5.0182610660       -5.4968289243  MEMB      73              0.0000000000
     10504       101  DOPC      H11R          -11.0594531874       -4.3807990428       -5.9976041095  MEMB      73              0.0000000000
     10505       101  DOPC      H11S          -11.3045724634       -5.4544312500       -4.6140749530  MEMB      73              0.0000000000
     10506       101  DOPC      C212          -12.9131260710       -4.0768453328       -5.0713935210  MEMB      73              0.0000000000
     10507       101  DOPC      H12R          -13.4011579900       -3.5244243081       -5.9026437318  MEMB      73              0.0000000000
     10508       101  DOPC      H12S          -12.4303124172       -3.2507115543       -4.5068453851  MEMB      73              0.0000000000
     10509       101  DOPC      C213          -13.9832462524       -4.6674626802       -4.1484729908  MEMB      73              0.0000000000
     10510       101  DOPC      H13R          -13.4897686184       -4.9513329205       -3.1944194616  MEMB      73              0.0000000000
     10511       101  DOPC      H13S          -14.4188420541       -5.5926345456       -4.5827934850  MEMB      73              0.0000000000
     10512       101  DOPC      C214          -15.0783041615       -3.6080194312       -3.8525206374  MEMB      73              0.0000000000
     10513       101  DOPC      H14R          -15.5922230397       -3.4981602500       -4.8313672012  MEMB      73              0.0000000000
     10514       101  DOPC      H14S          -14.7162654884       -2.6045109449       -3.5423269974  MEMB      73              0.0000000000
     10515       101  DOPC      C215          -16.1116031685       -4.0774088764       -2.8342282354  MEMB      73              0.0000000000
     10516       101  DOPC      H15R          -16.5943645022       -3.1858752054       -2.3798825760  MEMB      73              0.0000000000
     10517       101  DOPC      H15S          -15.5429857832       -4.4892713088       -1.9732021775  MEMB      73              0.0000000000
     10518       101  DOPC      C216          -17.1253357720       -5.1338973328       -3.4317680205  MEMB      73              0.0000000000
     10519       101  DOPC      H16R          -16.6343700539       -6.0145385665       -3.8983998983  MEMB      73              0.0000000000
     10520       101  DOPC      H16S          -17.6815170821       -4.6339011864       -4.2533444050  MEMB      73              0.0000000000
     10521       101  DOPC      C217          -18.1307593822       -5.5075509093       -2.3729954864  MEMB      73              0.0000000000
     10522       101  DOPC      H17R          -18.1816403901       -4.5605346277       -1.7942967939  MEMB      73              0.0000000000
     10523       101  DOPC      H17S          -17.6737329203       -6.2762219668       -1.7137587418  MEMB      73              0.0000000000
     10524       101  DOPC      C218          -19.5838265895       -5.8397678367       -2.8152459593  MEMB      73              0.0000000000
     10525       101  DOPC      H18R          -20.1052900399       -6.4562111566       -2.0520974723  MEMB      73              0.0000000000
     10526       101  DOPC      H18S          -19.5357519126       -6.2739589868       -3.8367588428  MEMB      73              0.0000000000
     10527       101  DOPC      H18T          -20.1669003333       -4.8959988525       -2.8756330086  MEMB      73              0.0000000000
     10528       101  DOPC      C33           -18.0314159552       -3.2105314117      -10.4723826724  MEMB      73              0.0000000000
     10529       101  DOPC      H3X           -18.6735867010       -3.8702182543      -11.0942753214  MEMB      73              0.0000000000
     10530       101  DOPC      H3Y           -18.3614326605       -2.1939964199      -10.7758077672  MEMB      73              0.0000000000
     10531       101  DOPC      C34           -18.3551356572       -3.6176846803       -9.0388247259  MEMB      73              0.0000000000
     10532       101  DOPC      H4X           -19.3780957657       -3.3276353768       -8.7167285108  MEMB      73              0.0000000000
     10533       101  DOPC      H4Y           -17.5539764238       -3.1693755514       -8.4131379117  MEMB      73              0.0000000000
     10534       101  DOPC      C35           -18.1228255111       -5.1446589756       -8.7028171939  MEMB      73              0.0000000000
     10535       101  DOPC      H5X           -17.0514584216       -5.3971427399       -8.8536333401  MEMB      73              0.0000000000
     10536       101  DOPC      H5Y           -18.6941046323       -5.7147345315       -9.4663449787  MEMB      73              0.0000000000
     10537       101  DOPC      C36           -18.3764505280       -5.5860870022       -7.2449901550  MEMB      73              0.0000000000
     10538       101  DOPC      H6X           -17.4369329980       -5.3480289924       -6.7018914441  MEMB      73              0.0000000000
     10539       101  DOPC      H6Y           -19.0777415472       -5.0170682437       -6.5978967511  MEMB      73              0.0000000000
     10540       101  DOPC      C37           -18.8347288001       -7.0756996366       -7.0044224537  MEMB      73              0.0000000000
     10541       101  DOPC      H7X           -19.1154979883       -7.1275489289       -5.9307363604  MEMB      73              0.0000000000
     10542       101  DOPC      H7Y           -19.7099198613       -7.3402942228       -7.6355726086  MEMB      73              0.0000000000
     10543       101  DOPC      C38           -17.7996824010       -8.1696347420       -7.2901735938  MEMB      73              0.0000000000
     10544       101  DOPC      H8X           -17.6549430463       -8.3124564158       -8.3824064956  MEMB      73              0.0000000000
     10545       101  DOPC      H8Y           -18.1950726656       -9.1729466516       -7.0230544800  MEMB      73              0.0000000000
     10546       101  DOPC      C39           -16.4877436342       -7.9336559905       -6.6419139093  MEMB      73              0.0000000000
     10547       101  DOPC      H9X           -16.1339130671       -6.9193295448       -6.8784430689  MEMB      73              0.0000000000
     10548       101  DOPC      C310          -15.8706750915       -8.7115662941       -5.7225180943  MEMB      73              0.0000000000
     10549       101  DOPC      H10X          -14.8721147799       -8.4272646607       -5.3591312679  MEMB      73              0.0000000000
     10550       101  DOPC      C311          -16.3806359435       -9.9802777592       -5.1040221897  MEMB      73              0.0000000000
     10551       101  DOPC      H11X          -15.4922342238      -10.6472421941       -5.1189177396  MEMB      73              0.0000000000
     10552       101  DOPC      H11Y          -17.1254090992      -10.4935729580       -5.7491283312  MEMB      73              0.0000000000
     10553       101  DOPC      C312          -16.9691940768       -9.8318083839       -3.6466515631  MEMB      73              0.0000000000
     10554       101  DOPC      H12X          -17.4379588398      -10.7502301697       -3.2330308181  MEMB      73              0.0000000000
     10555       101  DOPC      H12Y          -17.8020035459       -9.1050162577       -3.7585566943  MEMB      73              0.0000000000
     10556       101  DOPC      C313          -15.9003457218       -9.3327037484       -2.6196189091  MEMB      73              0.0000000000
     10557       101  DOPC      H13X          -15.0344338327      -10.0274758541       -2.6621583424  MEMB      73              0.0000000000
     10558       101  DOPC      H13Y          -15.5937922809       -8.2896762565       -2.8486159612  MEMB      73              0.0000000000
     10559       101  DOPC      C314          -16.4569322837       -9.2883179308       -1.2008257699  MEMB      73              0.0000000000
     10560       101  DOPC      H14X          -17.5340525184       -9.0237506399       -1.2651434329  MEMB      73              0.0000000000
     10561       101  DOPC      H14Y          -16.3170674519      -10.3363858108       -0.8597793513  MEMB      73              0.0000000000
     10562       101  DOPC      C315          -15.6854631218       -8.2940550708       -0.2720872622  MEMB      73              0.0000000000
     10563       101  DOPC      H15X          -15.7044006934       -7.2631544041       -0.6858566343  MEMB      73              0.0000000000
     10564       101  DOPC      H15Y          -14.6599386083       -8.6976460284       -0.1316064355  MEMB      73              0.0000000000
     10565       101  DOPC      C316          -16.3014437011       -8.3744263744        1.1420161924  MEMB      73              0.0000000000
     10566       101  DOPC      H16X          -17.3656738687       -8.0653757619        1.0631325930  MEMB      73              0.0000000000
     10567       101  DOPC      H16Y          -16.3625042799       -9.4477452042        1.4223350660  MEMB      73              0.0000000000
     10568       101  DOPC      C317          -15.4879075613       -7.4718935745        2.1270180177  MEMB      73              0.0000000000
     10569       101  DOPC      H17X          -15.9854661419       -7.3766773175        3.1158009757  MEMB      73              0.0000000000
     10570       101  DOPC      H17Y          -14.4655232241       -7.8529191674        2.3364714411  MEMB      73              0.0000000000
     10571       101  DOPC      C318          -15.2713406813       -5.9941563379        1.7056973849  MEMB      73              0.0000000000
     10572       101  DOPC      H18X          -16.2302892792       -5.4337425438        1.6797127311  MEMB      73              0.0000000000
     10573       101  DOPC      H18Y          -14.5797436010       -5.5862196320        2.4735540411  MEMB      73              0.0000000000
     10574       101  DOPC      H18Z          -14.9502598559       -5.8146002664        0.6573715156  MEMB      73              0.0000000000
     10575       102  DOPC      N               0.8356412002       15.4612293385      -21.2213683399  MEMB      74              0.0000000000
     10576       102  DOPC      C12            -0.4764529784       15.6824476176      -20.5244462285  MEMB      74              0.0000000000
     10577       102  DOPC      H12A           -1.2309180291       15.1624066846      -21.0960578166  MEMB      74              0.0000000000
     10578       102  DOPC      H12B           -0.6666350463       16.7455680989      -20.5220614549  MEMB      74              0.0000000000
     10579       102  DOPC      C13             0.8333223394       15.6615868928      -22.7485620938  MEMB      74              0.0000000000
     10580       102  DOPC      H13A            1.8803245096       15.4916522367      -22.9518074471  MEMB      74              0.0000000000
     10581       102  DOPC      H13B            0.3311342324       14.9453846234      -23.3820140822  MEMB      74              0.0000000000
     10582       102  DOPC      H13C            0.5090883489       16.6102776727      -23.1501319333  MEMB      74              0.0000000000
     10583       102  DOPC      C14             1.2646750429       13.9956784430      -21.1059017616  MEMB      74              0.0000000000
     10584       102  DOPC      H14A            2.0819639844       13.8241599316      -21.7907523043  MEMB      74              0.0000000000
     10585       102  DOPC      H14B            1.5307818378       13.7111100818      -20.0986243928  MEMB      74              0.0000000000
     10586       102  DOPC      H14C            0.4907334838       13.3755775238      -21.5335572676  MEMB      74              0.0000000000
     10587       102  DOPC      C15             1.9607493167       16.1841322992      -20.6722144012  MEMB      74              0.0000000000
     10588       102  DOPC      H15A            2.8669995377       15.8415242113      -21.1494250819  MEMB      74              0.0000000000
     10589       102  DOPC      H15B            2.0779697257       15.8300179813      -19.6586749046  MEMB      74              0.0000000000
     10590       102  DOPC      H15C            1.8425486444       17.2408272395      -20.8614884185  MEMB      74              0.0000000000
     10591       102  DOPC      C11            -0.5540952332       15.2438035631      -19.0426599254  MEMB      74              0.0000000000
     10592       102  DOPC      H11A           -1.5970580981       15.5442159502      -18.8053794867  MEMB      74              0.0000000000
     10593       102  DOPC      H11B           -0.4670005297       14.1440808346      -18.9109582899  MEMB      74              0.0000000000
     10594       102  DOPC      P               0.2274855268       15.8990792106      -16.6525555337  MEMB      74              0.0000000000
     10595       102  DOPC      O13            -0.0976025509       17.2628559801      -16.1927384084  MEMB      74              0.0000000000
     10596       102  DOPC      O14             1.4017183639       15.1876404481      -16.0510566380  MEMB      74              0.0000000000
     10597       102  DOPC      O12             0.3355921764       15.9941974732      -18.3024698652  MEMB      74              0.0000000000
     10598       102  DOPC      O11            -1.0004167280       14.9073431276      -16.4860267857  MEMB      74              0.0000000000
     10599       102  DOPC      C1             -0.9959134090       13.5594159220      -15.9552175853  MEMB      74              0.0000000000
     10600       102  DOPC      HA              0.0261964461       13.1547741528      -16.1160827480  MEMB      74              0.0000000000
     10601       102  DOPC      HB             -1.7146357484       12.9795926677      -16.5729265690  MEMB      74              0.0000000000
     10602       102  DOPC      C2             -1.2967523659       13.4772944527      -14.4822804465  MEMB      74              0.0000000000
     10603       102  DOPC      HS             -2.3834223108       13.2793892009      -14.3626858924  MEMB      74              0.0000000000
     10604       102  DOPC      O21            -0.9386805110       14.7445936777      -13.8092890137  MEMB      74              0.0000000000
     10605       102  DOPC      C21            -1.7117480781       15.1635288396      -12.8436452326  MEMB      74              0.0000000000
     10606       102  DOPC      O22            -2.8152243284       14.7594716110      -12.5131898765  MEMB      74              0.0000000000
     10607       102  DOPC      C22            -1.0073189261       16.1633429348      -11.9685976770  MEMB      74              0.0000000000
     10608       102  DOPC      H2R            -1.1432151974       17.1968713340      -12.3528788221  MEMB      74              0.0000000000
     10609       102  DOPC      H2S             0.0947671000       16.0228943295      -11.9673540237  MEMB      74              0.0000000000
     10610       102  DOPC      C3             -0.6110043290       12.3272255646      -13.7021578248  MEMB      74              0.0000000000
     10611       102  DOPC      HX              0.4825825737       12.5231491361      -13.7037728091  MEMB      74              0.0000000000
     10612       102  DOPC      HY             -0.8042673731       11.3449418221      -14.1839139517  MEMB      74              0.0000000000
     10613       102  DOPC      O31            -0.9646936015       12.2957808131      -12.3619534926  MEMB      74              0.0000000000
     10614       102  DOPC      C31            -0.8859635779       11.1220863584      -11.7463735525  MEMB      74              0.0000000000
     10615       102  DOPC      O32            -0.6754860809       10.0452581701      -12.2714042747  MEMB      74              0.0000000000
     10616       102  DOPC      C32            -0.9257753912       11.3050715427      -10.1839306568  MEMB      74              0.0000000000
     10617       102  DOPC      H2X            -0.8374368650       12.3148243118       -9.7290492751  MEMB      74              0.0000000000
     10618       102  DOPC      H2Y            -1.9076424049       10.9165006525       -9.8385748734  MEMB      74              0.0000000000
     10619       102  DOPC      C23            -1.3933509146       16.0070796469      -10.4961462440  MEMB      74              0.0000000000
     10620       102  DOPC      H3R            -1.8193501020       15.0333962301      -10.1724384382  MEMB      74              0.0000000000
     10621       102  DOPC      H3S            -2.1201605438       16.8167003258      -10.2712388883  MEMB      74              0.0000000000
     10622       102  DOPC      C24            -0.2394140800       16.3055006328       -9.4967444829  MEMB      74              0.0000000000
     10623       102  DOPC      H4R            -0.0298380707       17.3961624028       -9.5260072082  MEMB      74              0.0000000000
     10624       102  DOPC      H4S             0.6237622797       15.7710671574       -9.9479968404  MEMB      74              0.0000000000
     10625       102  DOPC      C25            -0.4745244798       15.9393654360       -8.0025204766  MEMB      74              0.0000000000
     10626       102  DOPC      H5R             0.4167193191       16.1881741353       -7.3876224739  MEMB      74              0.0000000000
     10627       102  DOPC      H5S            -0.6557248386       14.8433165986       -8.0153399281  MEMB      74              0.0000000000
     10628       102  DOPC      C26            -1.7659385529       16.6384132639       -7.4165238303  MEMB      74              0.0000000000
     10629       102  DOPC      H6R            -2.6891491936       16.3937944778       -7.9841203641  MEMB      74              0.0000000000
     10630       102  DOPC      H6S            -1.3095767623       17.6325114071       -7.6110080546  MEMB      74              0.0000000000
     10631       102  DOPC      C27            -1.7755564359       16.3709649061       -5.9397013959  MEMB      74              0.0000000000
     10632       102  DOPC      H7R            -2.4052697638       17.1604657001       -5.4765910842  MEMB      74              0.0000000000
     10633       102  DOPC      H7S            -0.7251098826       16.4737787060       -5.5928403178  MEMB      74              0.0000000000
     10634       102  DOPC      C28            -2.6039022536       15.1136497350       -5.4797555052  MEMB      74              0.0000000000
     10635       102  DOPC      H8R            -3.6222721895       15.2602678727       -5.8989767767  MEMB      74              0.0000000000
     10636       102  DOPC      H8S            -2.7793868936       15.1341408794       -4.3828931184  MEMB      74              0.0000000000
     10637       102  DOPC      C29            -1.9253914845       13.8517207277       -5.8922659671  MEMB      74              0.0000000000
     10638       102  DOPC      H9R            -2.5335383868       13.3224256858       -6.6405996673  MEMB      74              0.0000000000
     10639       102  DOPC      C210           -0.8170256840       13.3125780237       -5.4959934497  MEMB      74              0.0000000000
     10640       102  DOPC      H10R           -0.5358109481       12.2706992069       -5.7090822930  MEMB      74              0.0000000000
     10641       102  DOPC      C211            0.0575465771       13.9265094123       -4.4462429746  MEMB      74              0.0000000000
     10642       102  DOPC      H11R           -0.2334463597       14.8655497146       -3.9287032452  MEMB      74              0.0000000000
     10643       102  DOPC      H11S            1.1296754444       13.9635701714       -4.7351837926  MEMB      74              0.0000000000
     10644       102  DOPC      C212            0.0704077699       12.8578057394       -3.2991304038  MEMB      74              0.0000000000
     10645       102  DOPC      H12R            0.7596455990       13.1534914011       -2.4794705010  MEMB      74              0.0000000000
     10646       102  DOPC      H12S            0.4183311481       11.9014521922       -3.7448409382  MEMB      74              0.0000000000
     10647       102  DOPC      C213           -1.2383384127       12.5218760646       -2.6785227534  MEMB      74              0.0000000000
     10648       102  DOPC      H13R           -1.8101370139       11.8504916232       -3.3542528967  MEMB      74              0.0000000000
     10649       102  DOPC      H13S           -1.7974592818       13.4779739112       -2.5914495423  MEMB      74              0.0000000000
     10650       102  DOPC      C214           -1.1466762669       11.8505420634       -1.3009523786  MEMB      74              0.0000000000
     10651       102  DOPC      H14R           -2.1847343293       11.6738494283       -0.9466396726  MEMB      74              0.0000000000
     10652       102  DOPC      H14S           -0.8079036948       12.4829058777       -0.4526176656  MEMB      74              0.0000000000
     10653       102  DOPC      C215           -0.3357129825       10.5762893906       -1.4429333461  MEMB      74              0.0000000000
     10654       102  DOPC      H15R            0.7699274244       10.6758324152       -1.4873363590  MEMB      74              0.0000000000
     10655       102  DOPC      H15S           -0.6487385409        9.9774535814       -2.3248239376  MEMB      74              0.0000000000
     10656       102  DOPC      C216           -0.5739310553        9.6822194657       -0.1812561220  MEMB      74              0.0000000000
     10657       102  DOPC      H16R           -1.6149901958        9.2980769556       -0.2355832333  MEMB      74              0.0000000000
     10658       102  DOPC      H16S           -0.3162477615       10.2058164951        0.7641357366  MEMB      74              0.0000000000
     10659       102  DOPC      C217            0.3040559168        8.4434641345       -0.3187955462  MEMB      74              0.0000000000
     10660       102  DOPC      H17R            1.2967266107        8.9205553375       -0.1728160133  MEMB      74              0.0000000000
     10661       102  DOPC      H17S            0.3225642642        7.9586139225       -1.3182437999  MEMB      74              0.0000000000
     10662       102  DOPC      C218            0.0219334626        7.3916614430        0.7809429770  MEMB      74              0.0000000000
     10663       102  DOPC      H18R           -0.0014309716        7.9320101966        1.7514057360  MEMB      74              0.0000000000
     10664       102  DOPC      H18S            0.6616915387        6.4835459274        0.7620524092  MEMB      74              0.0000000000
     10665       102  DOPC      H18T           -0.9966497827        6.9480825821        0.7877912463  MEMB      74              0.0000000000
     10666       102  DOPC      C33             0.1583768899       10.6345052575       -9.2729035231  MEMB      74              0.0000000000
     10667       102  DOPC      H3X             0.2027805036        9.5279097443       -9.3611973213  MEMB      74              0.0000000000
     10668       102  DOPC      H3Y            -0.1348242081       10.8889805764       -8.2319439127  MEMB      74              0.0000000000
     10669       102  DOPC      C34             1.5931874703       11.1936552880       -9.4291070651  MEMB      74              0.0000000000
     10670       102  DOPC      H4X             1.9544185636       10.7967064593      -10.4018685454  MEMB      74              0.0000000000
     10671       102  DOPC      H4Y             2.2834641640       10.9328635689       -8.5985484033  MEMB      74              0.0000000000
     10672       102  DOPC      C35             1.6719324976       12.7098459957       -9.3338877694  MEMB      74              0.0000000000
     10673       102  DOPC      H5X             1.2125053001       13.2675700978       -8.4899738254  MEMB      74              0.0000000000
     10674       102  DOPC      H5Y             1.0109259304       13.0327414668      -10.1664322404  MEMB      74              0.0000000000
     10675       102  DOPC      C36             3.1086603445       13.3554890211       -9.5644554562  MEMB      74              0.0000000000
     10676       102  DOPC      H6X             3.5844469276       13.0577260751      -10.5232491206  MEMB      74              0.0000000000
     10677       102  DOPC      H6Y             3.0118446028       14.4606464325       -9.6242470162  MEMB      74              0.0000000000
     10678       102  DOPC      C37             4.1330300583       12.8777602167       -8.4210314745  MEMB      74              0.0000000000
     10679       102  DOPC      H7X             4.2219131161       11.7751597628       -8.5244390077  MEMB      74              0.0000000000
     10680       102  DOPC      H7Y             5.1007072215       13.3648296440       -8.6673755232  MEMB      74              0.0000000000
     10681       102  DOPC      C38             3.6733161166       13.2922120945       -7.0203241917  MEMB      74              0.0000000000
     10682       102  DOPC      H8X             2.8915559632       12.5903871110       -6.6589187778  MEMB      74              0.0000000000
     10683       102  DOPC      H8Y             3.2749822800       14.3179416309       -7.1737188140  MEMB      74              0.0000000000
     10684       102  DOPC      C39             4.8990182023       13.2915467257       -6.2166332927  MEMB      74              0.0000000000
     10685       102  DOPC      H9X             5.6068224171       12.4614250785       -6.3577411203  MEMB      74              0.0000000000
     10686       102  DOPC      C310            5.1475056126       14.1717818877       -5.2410811164  MEMB      74              0.0000000000
     10687       102  DOPC      H10X            6.0744448386       14.1025150975       -4.6528757855  MEMB      74              0.0000000000
     10688       102  DOPC      C311            4.2361879175       15.3014056916       -4.8253021206  MEMB      74              0.0000000000
     10689       102  DOPC      H11X            3.3758237266       15.4593879287       -5.5102373229  MEMB      74              0.0000000000
     10690       102  DOPC      H11Y            4.7749390233       16.2717094319       -4.7745205030  MEMB      74              0.0000000000
     10691       102  DOPC      C312            3.6347020074       15.1119666336       -3.3742500616  MEMB      74              0.0000000000
     10692       102  DOPC      H12X            4.4963142854       14.9895609804       -2.6836258259  MEMB      74              0.0000000000
     10693       102  DOPC      H12Y            2.9852331022       14.2149463039       -3.4629396502  MEMB      74              0.0000000000
     10694       102  DOPC      C313            2.7199051817       16.3054655458       -2.7832933623  MEMB      74              0.0000000000
     10695       102  DOPC      H13X            3.4095858055       17.1408779066       -2.5368231586  MEMB      74              0.0000000000
     10696       102  DOPC      H13Y            2.1322222953       16.6633531881       -3.6555701539  MEMB      74              0.0000000000
     10697       102  DOPC      C314            2.0006237083       15.9541130832       -1.4887713573  MEMB      74              0.0000000000
     10698       102  DOPC      H14X            1.4634345919       14.9987942993       -1.6707464447  MEMB      74              0.0000000000
     10699       102  DOPC      H14Y            2.6839945570       15.6949770396       -0.6520068325  MEMB      74              0.0000000000
     10700       102  DOPC      C315            1.0366645223       17.1188373112       -1.1117409975  MEMB      74              0.0000000000
     10701       102  DOPC      H15X            0.4730268295       17.0891036741       -2.0686901552  MEMB      74              0.0000000000
     10702       102  DOPC      H15Y            1.5870986870       18.0818134265       -1.0483285394  MEMB      74              0.0000000000
     10703       102  DOPC      C316            0.1525063263       16.8834860354        0.0753871973  MEMB      74              0.0000000000
     10704       102  DOPC      H16X           -0.4693800084       17.7967007489        0.1920823892  MEMB      74              0.0000000000
     10705       102  DOPC      H16Y           -0.4655564777       16.0047696378       -0.2077677092  MEMB      74              0.0000000000
     10706       102  DOPC      C317            0.8853848489       16.7371734213        1.4387879759  MEMB      74              0.0000000000
     10707       102  DOPC      H17X            1.6597234834       15.9460137722        1.5325292901  MEMB      74              0.0000000000
     10708       102  DOPC      H17Y            1.4600479002       17.6770748148        1.5825553922  MEMB      74              0.0000000000
     10709       102  DOPC      C318           -0.0925641952       16.6157735372        2.6706863381  MEMB      74              0.0000000000
     10710       102  DOPC      H18X            0.3898006469       16.2562416404        3.6046999372  MEMB      74              0.0000000000
     10711       102  DOPC      H18Y           -0.6408156199       17.5705354507        2.8195837558  MEMB      74              0.0000000000
     10712       102  DOPC      H18Z           -0.8724835200       15.8252831766        2.7049174536  MEMB      74              0.0000000000
     10713       103  DOPC      N              10.2090461280       12.0964586520      -18.5025000302  MEMB      75              0.0000000000
     10714       103  DOPC      C12             9.3973375386       11.7467850588      -19.8046939224  MEMB      75              0.0000000000
     10715       103  DOPC      H12A           10.0541263743       11.1433378388      -20.4136930688  MEMB      75              0.0000000000
     10716       103  DOPC      H12B            9.2518826027       12.6811204519      -20.3264794838  MEMB      75              0.0000000000
     10717       103  DOPC      C13            11.2679780536       12.9887721410      -18.8909156809  MEMB      75              0.0000000000
     10718       103  DOPC      H13A           11.9961830509       12.3888028261      -19.4164198268  MEMB      75              0.0000000000
     10719       103  DOPC      H13B           10.9742350999       13.8205232109      -19.5140570736  MEMB      75              0.0000000000
     10720       103  DOPC      H13C           11.8120451581       13.4661441171      -18.0893503217  MEMB      75              0.0000000000
     10721       103  DOPC      C14            10.6967105340       10.8274876157      -17.9043918237  MEMB      75              0.0000000000
     10722       103  DOPC      H14A            9.8509712406       10.1630401452      -17.8062352815  MEMB      75              0.0000000000
     10723       103  DOPC      H14B           11.3906014435       10.4372592730      -18.6342116921  MEMB      75              0.0000000000
     10724       103  DOPC      H14C           11.1755102186       10.9702347605      -16.9469085300  MEMB      75              0.0000000000
     10725       103  DOPC      C15             9.3077405245       12.9193184761      -17.5806979348  MEMB      75              0.0000000000
     10726       103  DOPC      H15A            9.7397190457       13.2873924678      -16.6618312100  MEMB      75              0.0000000000
     10727       103  DOPC      H15B            8.4550099772       12.3281328690      -17.2811146366  MEMB      75              0.0000000000
     10728       103  DOPC      H15C            9.0344326003       13.8483693107      -18.0587850885  MEMB      75              0.0000000000
     10729       103  DOPC      C11             8.1003265527       10.9190052444      -19.6570352125  MEMB      75              0.0000000000
     10730       103  DOPC      H11A            7.5750566383       10.6867078164      -20.6080612138  MEMB      75              0.0000000000
     10731       103  DOPC      H11B            8.4708802081        9.9845345277      -19.1839862569  MEMB      75              0.0000000000
     10732       103  DOPC      P               6.1125595222       12.6140270982      -19.3965507774  MEMB      75              0.0000000000
     10733       103  DOPC      O13             5.3863228941       11.9170237359      -20.4796434701  MEMB      75              0.0000000000
     10734       103  DOPC      O14             6.8658497724       13.8248573347      -19.7831677447  MEMB      75              0.0000000000
     10735       103  DOPC      O12             7.1949607276       11.5686063491      -18.8027649225  MEMB      75              0.0000000000
     10736       103  DOPC      O11             5.1109604165       13.0151922439      -18.1976384812  MEMB      75              0.0000000000
     10737       103  DOPC      C1              5.6217717729       13.0639904553      -16.8325924155  MEMB      75              0.0000000000
     10738       103  DOPC      HA              5.3058798353       14.0117025018      -16.3464079559  MEMB      75              0.0000000000
     10739       103  DOPC      HB              6.7232607784       12.9618062310      -16.7296308521  MEMB      75              0.0000000000
     10740       103  DOPC      C2              4.9989104863       11.8843526968      -16.0758353499  MEMB      75              0.0000000000
     10741       103  DOPC      HS              5.0832753569       12.1391248280      -14.9977377378  MEMB      75              0.0000000000
     10742       103  DOPC      O21             5.6119727749       10.6058550369      -16.3999124550  MEMB      75              0.0000000000
     10743       103  DOPC      C21             6.7507623207       10.2757260344      -15.7703184548  MEMB      75              0.0000000000
     10744       103  DOPC      O22             7.3189447591       10.9581184292      -14.9600183196  MEMB      75              0.0000000000
     10745       103  DOPC      C22             7.1600162792        8.8264120389      -16.1734064828  MEMB      75              0.0000000000
     10746       103  DOPC      H2R             8.0802078270        8.8901468680      -16.7926852333  MEMB      75              0.0000000000
     10747       103  DOPC      H2S             6.4324885300        8.4508119388      -16.9243719073  MEMB      75              0.0000000000
     10748       103  DOPC      C3              3.4489104014       11.7736565907      -16.3453484891  MEMB      75              0.0000000000
     10749       103  DOPC      HX              3.1805202824       11.7283254087      -17.4224895003  MEMB      75              0.0000000000
     10750       103  DOPC      HY              2.9880119132       12.6850204270      -15.9079588330  MEMB      75              0.0000000000
     10751       103  DOPC      O31             2.9100509289       10.6050513306      -15.7726718248  MEMB      75              0.0000000000
     10752       103  DOPC      C31             2.4019561777       10.5703973981      -14.5868662885  MEMB      75              0.0000000000
     10753       103  DOPC      O32             2.0328495630       11.5413499623      -13.9826297176  MEMB      75              0.0000000000
     10754       103  DOPC      C32             2.0103342701        9.1013868117      -14.2059095151  MEMB      75              0.0000000000
     10755       103  DOPC      H2X             1.2595021130        9.1068202744      -13.3870428784  MEMB      75              0.0000000000
     10756       103  DOPC      H2Y             1.4963811424        8.5584947222      -15.0277615375  MEMB      75              0.0000000000
     10757       103  DOPC      C23             7.1773023574        7.8149621356      -15.0047052369  MEMB      75              0.0000000000
     10758       103  DOPC      H3R             6.2749883730        7.1718396347      -15.0855961119  MEMB      75              0.0000000000
     10759       103  DOPC      H3S             7.1641967751        8.4210534250      -14.0736826621  MEMB      75              0.0000000000
     10760       103  DOPC      C24             8.4746743924        6.9075699069      -14.9009732033  MEMB      75              0.0000000000
     10761       103  DOPC      H4R             9.3890091774        7.5379096355      -14.9323577960  MEMB      75              0.0000000000
     10762       103  DOPC      H4S             8.5091845751        6.1914146540      -15.7496496169  MEMB      75              0.0000000000
     10763       103  DOPC      C25             8.6334158689        6.1109238160      -13.5713844217  MEMB      75              0.0000000000
     10764       103  DOPC      H5R             9.6907609153        5.7698569810      -13.5674644358  MEMB      75              0.0000000000
     10765       103  DOPC      H5S             7.9139078235        5.2644011875      -13.5659914964  MEMB      75              0.0000000000
     10766       103  DOPC      C26             8.2452148154        6.8742679438      -12.2452840994  MEMB      75              0.0000000000
     10767       103  DOPC      H6R             8.4845557909        6.0696212241      -11.5175612738  MEMB      75              0.0000000000
     10768       103  DOPC      H6S             7.1375800449        6.9593962300      -12.2600971247  MEMB      75              0.0000000000
     10769       103  DOPC      C27             9.1397026607        8.1734913299      -12.0661654128  MEMB      75              0.0000000000
     10770       103  DOPC      H7R             8.8995293814        8.8934635960      -12.8775089755  MEMB      75              0.0000000000
     10771       103  DOPC      H7S            10.2095566413        7.8867577798      -12.1528679634  MEMB      75              0.0000000000
     10772       103  DOPC      C28             9.0351714028        8.8672917482      -10.6333723401  MEMB      75              0.0000000000
     10773       103  DOPC      H8R             9.2243746815        8.0169211899       -9.9438851916  MEMB      75              0.0000000000
     10774       103  DOPC      H8S             7.9666252117        9.1680194649      -10.5876247608  MEMB      75              0.0000000000
     10775       103  DOPC      C29            10.0365593811       10.0175089150      -10.4702194966  MEMB      75              0.0000000000
     10776       103  DOPC      H9R            10.9983666359        9.7635176819      -10.9397046376  MEMB      75              0.0000000000
     10777       103  DOPC      C210            9.8127996041       11.1871664330       -9.8258498451  MEMB      75              0.0000000000
     10778       103  DOPC      H10R           10.6497443754       11.8950693360       -9.7342148405  MEMB      75              0.0000000000
     10779       103  DOPC      C211            8.5225050341       11.6413752655       -9.1571298386  MEMB      75              0.0000000000
     10780       103  DOPC      H11R            7.9480358560       10.7180139141       -8.9297318960  MEMB      75              0.0000000000
     10781       103  DOPC      H11S            7.9038707049       12.2278512136       -9.8696313112  MEMB      75              0.0000000000
     10782       103  DOPC      C212            8.7981306106       12.4225890371       -7.8817403858  MEMB      75              0.0000000000
     10783       103  DOPC      H12R            9.3431607670       13.3860375292       -7.9767676076  MEMB      75              0.0000000000
     10784       103  DOPC      H12S            9.4241630871       11.8009611949       -7.2064751254  MEMB      75              0.0000000000
     10785       103  DOPC      C213            7.4952622398       12.9027206287       -7.1408952863  MEMB      75              0.0000000000
     10786       103  DOPC      H13R            6.8756662035       11.9829475833       -7.2075243708  MEMB      75              0.0000000000
     10787       103  DOPC      H13S            6.9776065348       13.5788215190       -7.8545070504  MEMB      75              0.0000000000
     10788       103  DOPC      C214            7.5485309133       13.4776267141       -5.7186726096  MEMB      75              0.0000000000
     10789       103  DOPC      H14R            8.3246272844       14.2685131075       -5.6380832041  MEMB      75              0.0000000000
     10790       103  DOPC      H14S            7.7717232427       12.6408868757       -5.0227035427  MEMB      75              0.0000000000
     10791       103  DOPC      C215            6.2764715642       14.0338766122       -5.1148932932  MEMB      75              0.0000000000
     10792       103  DOPC      H15R            6.0446430303       14.8953222895       -5.7770777728  MEMB      75              0.0000000000
     10793       103  DOPC      H15S            6.4418429539       14.5788611966       -4.1609723739  MEMB      75              0.0000000000
     10794       103  DOPC      C216            5.0349541291       13.1909940676       -5.2291169540  MEMB      75              0.0000000000
     10795       103  DOPC      H16R            5.2694367684       12.1326656834       -4.9856427098  MEMB      75              0.0000000000
     10796       103  DOPC      H16S            4.7400324674       13.4026933070       -6.2791297518  MEMB      75              0.0000000000
     10797       103  DOPC      C217            3.7905162052       13.6569762141       -4.4391650359  MEMB      75              0.0000000000
     10798       103  DOPC      H17R            3.0349312975       12.8870742650       -4.7049913542  MEMB      75              0.0000000000
     10799       103  DOPC      H17S            3.2639593932       14.6097555849       -4.6611351010  MEMB      75              0.0000000000
     10800       103  DOPC      C218            3.8945932360       13.5907376246       -2.9331567127  MEMB      75              0.0000000000
     10801       103  DOPC      H18R            2.9077535346       13.5584744249       -2.4238155494  MEMB      75              0.0000000000
     10802       103  DOPC      H18S            4.5455100743       14.3911725562       -2.5209282746  MEMB      75              0.0000000000
     10803       103  DOPC      H18T            4.2845613022       12.6078654142       -2.5922631599  MEMB      75              0.0000000000
     10804       103  DOPC      C33             3.2793708278        8.3228886993      -13.8421776652  MEMB      75              0.0000000000
     10805       103  DOPC      H3X             4.1131997855        8.6091768642      -14.5182611011  MEMB      75              0.0000000000
     10806       103  DOPC      H3Y             2.9823917818        7.2655979763      -14.0102865646  MEMB      75              0.0000000000
     10807       103  DOPC      C34             3.7820872016        8.5340404997      -12.3473856079  MEMB      75              0.0000000000
     10808       103  DOPC      H4X             4.5113934792        7.7267423915      -12.1222123250  MEMB      75              0.0000000000
     10809       103  DOPC      H4Y             2.8170701378        8.5598886086      -11.7974815207  MEMB      75              0.0000000000
     10810       103  DOPC      C35             4.4905989805        9.8632830737      -12.1011824554  MEMB      75              0.0000000000
     10811       103  DOPC      H5X             3.9426682823       10.8044568728      -12.3209205524  MEMB      75              0.0000000000
     10812       103  DOPC      H5Y             5.3145599954        9.8817191765      -12.8462123682  MEMB      75              0.0000000000
     10813       103  DOPC      C36             4.9618240769       10.1126716658      -10.6564523776  MEMB      75              0.0000000000
     10814       103  DOPC      H6X             5.8249130772        9.4448552107      -10.4480786293  MEMB      75              0.0000000000
     10815       103  DOPC      H6Y             5.2857957800       11.1753115493      -10.6690847429  MEMB      75              0.0000000000
     10816       103  DOPC      C37             3.7989979521       10.0570877594       -9.6444896349  MEMB      75              0.0000000000
     10817       103  DOPC      H7X             2.8850856686       10.4214799069      -10.1605364891  MEMB      75              0.0000000000
     10818       103  DOPC      H7Y             3.5306735212        8.9880804170       -9.5046829616  MEMB      75              0.0000000000
     10819       103  DOPC      C38             4.0474071853       10.7824227762       -8.3928711423  MEMB      75              0.0000000000
     10820       103  DOPC      H8X             3.1510906096       11.1532005829       -7.8511502880  MEMB      75              0.0000000000
     10821       103  DOPC      H8Y             4.7566223081       11.6244885653       -8.5420696783  MEMB      75              0.0000000000
     10822       103  DOPC      C39             4.8014621532        9.8338986828       -7.3711507903  MEMB      75              0.0000000000
     10823       103  DOPC      H9X             5.8966233714        9.7485834247       -7.4289724845  MEMB      75              0.0000000000
     10824       103  DOPC      C310            4.2477182169        9.3070859956       -6.2821118105  MEMB      75              0.0000000000
     10825       103  DOPC      H10X            4.9295123817        8.7883957259       -5.5920989984  MEMB      75              0.0000000000
     10826       103  DOPC      C311            2.8068449675        9.4506997021       -5.7004674378  MEMB      75              0.0000000000
     10827       103  DOPC      H11X            2.1066205662        8.8925280740       -6.3580778595  MEMB      75              0.0000000000
     10828       103  DOPC      H11Y            2.4623625617       10.4912833348       -5.8816814582  MEMB      75              0.0000000000
     10829       103  DOPC      C312            2.5375333667        9.0091381170       -4.2778145118  MEMB      75              0.0000000000
     10830       103  DOPC      H12X            3.0016209231        8.0229350961       -4.0625299763  MEMB      75              0.0000000000
     10831       103  DOPC      H12Y            1.4792989122        8.7838550004       -4.0254094505  MEMB      75              0.0000000000
     10832       103  DOPC      C313            2.9795202824        9.9848110051       -3.2707206246  MEMB      75              0.0000000000
     10833       103  DOPC      H13X            4.0727226844       10.1695268110       -3.3422031443  MEMB      75              0.0000000000
     10834       103  DOPC      H13Y            2.4577751543       10.9427041380       -3.4817737697  MEMB      75              0.0000000000
     10835       103  DOPC      C314            2.5677579245        9.4705997016       -1.9495492660  MEMB      75              0.0000000000
     10836       103  DOPC      H14X            1.5546639132        9.0167141250       -1.9053996993  MEMB      75              0.0000000000
     10837       103  DOPC      H14Y            3.2143612655        8.6034177519       -1.6961308286  MEMB      75              0.0000000000
     10838       103  DOPC      C315            2.6735491270       10.4277094611       -0.7764075497  MEMB      75              0.0000000000
     10839       103  DOPC      H15X            3.5645817507       11.0795706731       -0.9007396541  MEMB      75              0.0000000000
     10840       103  DOPC      H15Y            2.9027252302        9.8261370317        0.1290822297  MEMB      75              0.0000000000
     10841       103  DOPC      C316            1.5392602857       11.3843634021       -0.6123538828  MEMB      75              0.0000000000
     10842       103  DOPC      H16X            1.2585182227       11.9469826712       -1.5283035020  MEMB      75              0.0000000000
     10843       103  DOPC      H16Y            0.5937177407       10.8302094343       -0.4301888201  MEMB      75              0.0000000000
     10844       103  DOPC      C317            1.6139665298       12.4121163542        0.5541585586  MEMB      75              0.0000000000
     10845       103  DOPC      H17X            0.7417379736       13.0740103979        0.3659181664  MEMB      75              0.0000000000
     10846       103  DOPC      H17Y            1.4505313400       11.9004820927        1.5267015313  MEMB      75              0.0000000000
     10847       103  DOPC      C318            2.8968445116       13.2852409833        0.7696533009  MEMB      75              0.0000000000
     10848       103  DOPC      H18X            2.9496769897       13.9860227516        1.6301384940  MEMB      75              0.0000000000
     10849       103  DOPC      H18Y            3.6235844493       12.5410645017        1.1600022840  MEMB      75              0.0000000000
     10850       103  DOPC      H18Z            3.3098936769       13.7790103651       -0.1358317489  MEMB      75              0.0000000000
     10851       104  DOPC      N              12.2704488398      -14.4052374211      -20.8624598002  MEMB      76              0.0000000000
     10852       104  DOPC      C12            12.9519317425      -14.2707097300      -19.5457148747  MEMB      76              0.0000000000
     10853       104  DOPC      H12A           13.4872604331      -13.3330429854      -19.5702982851  MEMB      76              0.0000000000
     10854       104  DOPC      H12B           13.6901395715      -15.0578894580      -19.5033214115  MEMB      76              0.0000000000
     10855       104  DOPC      C13            11.2029790715      -13.3943507375      -21.1863613637  MEMB      76              0.0000000000
     10856       104  DOPC      H13A           10.7325655370      -13.7964661377      -22.0714683585  MEMB      76              0.0000000000
     10857       104  DOPC      H13B           10.4232617070      -13.3699978515      -20.4394692494  MEMB      76              0.0000000000
     10858       104  DOPC      H13C           11.6292472426      -12.4122112296      -21.3281261941  MEMB      76              0.0000000000
     10859       104  DOPC      C14            11.6967284552      -15.7986870558      -21.0222274224  MEMB      76              0.0000000000
     10860       104  DOPC      H14A           10.9195167827      -16.0811928372      -20.3275818394  MEMB      76              0.0000000000
     10861       104  DOPC      H14B           11.2154566830      -15.8810767653      -21.9855495850  MEMB      76              0.0000000000
     10862       104  DOPC      H14C           12.4710575601      -16.5451020201      -20.9238465576  MEMB      76              0.0000000000
     10863       104  DOPC      C15            13.3955848919      -14.1748884996      -21.9017429241  MEMB      76              0.0000000000
     10864       104  DOPC      H15A           14.3347014152      -14.6990297744      -21.8030699576  MEMB      76              0.0000000000
     10865       104  DOPC      H15B           13.6552710333      -13.1309854681      -21.9978142821  MEMB      76              0.0000000000
     10866       104  DOPC      H15C           12.9591463391      -14.3855588553      -22.8669054509  MEMB      76              0.0000000000
     10867       104  DOPC      C11            12.1271456135      -14.5473244015      -18.2767795412  MEMB      76              0.0000000000
     10868       104  DOPC      H11A           11.7456419208      -15.5585706143      -18.0195695540  MEMB      76              0.0000000000
     10869       104  DOPC      H11B           12.6546773689      -14.1717335815      -17.3740266851  MEMB      76              0.0000000000
     10870       104  DOPC      P              10.0217418348      -13.2191068896      -17.2560577893  MEMB      76              0.0000000000
     10871       104  DOPC      O13             9.1683936604      -14.2952657036      -16.7391516051  MEMB      76              0.0000000000
     10872       104  DOPC      O14             9.2316582528      -12.0518114270      -17.7406319715  MEMB      76              0.0000000000
     10873       104  DOPC      O12            10.9428615681      -13.7810551789      -18.3849110724  MEMB      76              0.0000000000
     10874       104  DOPC      O11            11.0886793065      -12.9134687078      -16.0839616728  MEMB      76              0.0000000000
     10875       104  DOPC      C1             11.9344509712      -11.7999264823      -16.1984237839  MEMB      76              0.0000000000
     10876       104  DOPC      HA             11.7261270914      -11.1682182378      -17.0882928980  MEMB      76              0.0000000000
     10877       104  DOPC      HB             13.0147612502      -12.0562230473      -16.2379535927  MEMB      76              0.0000000000
     10878       104  DOPC      C2             11.8358572580      -10.7539056530      -15.0927703204  MEMB      76              0.0000000000
     10879       104  DOPC      HS             12.6306862874       -9.9991221354      -15.2740693478  MEMB      76              0.0000000000
     10880       104  DOPC      O21            11.9444442931      -11.5402618930      -13.8487113301  MEMB      76              0.0000000000
     10881       104  DOPC      C21            12.1992503192      -10.9184809144      -12.7681548781  MEMB      76              0.0000000000
     10882       104  DOPC      O22            12.3694520023       -9.7574251284      -12.6124951259  MEMB      76              0.0000000000
     10883       104  DOPC      C22            12.2923228726      -11.9210290524      -11.6450573608  MEMB      76              0.0000000000
     10884       104  DOPC      H2R            12.8805538976      -12.8176040435      -11.9356743908  MEMB      76              0.0000000000
     10885       104  DOPC      H2S            11.2806002216      -12.1802907696      -11.2662147333  MEMB      76              0.0000000000
     10886       104  DOPC      C3             10.4860221845      -10.0135029441      -15.1487874488  MEMB      76              0.0000000000
     10887       104  DOPC      HX             10.5369323487       -9.4767898180      -16.1202136202  MEMB      76              0.0000000000
     10888       104  DOPC      HY             10.4341357121       -9.2402622479      -14.3527176521  MEMB      76              0.0000000000
     10889       104  DOPC      O31             9.3809442573      -10.9691034369      -14.9976687793  MEMB      76              0.0000000000
     10890       104  DOPC      C31             8.7598404173      -10.9586141019      -13.7754126754  MEMB      76              0.0000000000
     10891       104  DOPC      O32             8.9973282350      -10.2010502343      -12.8669469622  MEMB      76              0.0000000000
     10892       104  DOPC      C32             7.6793728828      -12.1022938681      -13.7210866108  MEMB      76              0.0000000000
     10893       104  DOPC      H2X             6.6773182066      -11.6228186075      -13.7034606409  MEMB      76              0.0000000000
     10894       104  DOPC      H2Y             7.8089462326      -12.7967586222      -14.5785543234  MEMB      76              0.0000000000
     10895       104  DOPC      C23            13.2227551847      -11.3081682748      -10.4780111492  MEMB      76              0.0000000000
     10896       104  DOPC      H3R            12.7882696367      -10.3556586416      -10.1061651429  MEMB      76              0.0000000000
     10897       104  DOPC      H3S            14.1843962925      -11.0150628741      -10.9509337687  MEMB      76              0.0000000000
     10898       104  DOPC      C24            13.6589342874      -12.2977421045       -9.4046230664  MEMB      76              0.0000000000
     10899       104  DOPC      H4R            14.5992683381      -12.8419882355       -9.6367621889  MEMB      76              0.0000000000
     10900       104  DOPC      H4S            12.8793761904      -13.0872668981       -9.4617257453  MEMB      76              0.0000000000
     10901       104  DOPC      C25            13.8047209809      -11.6849629379       -8.0046707930  MEMB      76              0.0000000000
     10902       104  DOPC      H5R            14.5111380532      -10.8372252223       -7.8756874647  MEMB      76              0.0000000000
     10903       104  DOPC      H5S            14.0913153985      -12.5079014678       -7.3154996455  MEMB      76              0.0000000000
     10904       104  DOPC      C26            12.4214881509      -11.2796336438       -7.4206212105  MEMB      76              0.0000000000
     10905       104  DOPC      H6R            11.6899415683      -12.0427335757       -7.7624384539  MEMB      76              0.0000000000
     10906       104  DOPC      H6S            12.0918753939      -10.3023574882       -7.8336678042  MEMB      76              0.0000000000
     10907       104  DOPC      C27            12.3404044275      -11.0253674545       -5.9034286110  MEMB      76              0.0000000000
     10908       104  DOPC      H7R            11.3358509991      -10.5649574004       -5.7884671782  MEMB      76              0.0000000000
     10909       104  DOPC      H7S            12.9724185201      -10.1774557425       -5.5629511434  MEMB      76              0.0000000000
     10910       104  DOPC      C28            12.5489938367      -12.2877301522       -4.9409301621  MEMB      76              0.0000000000
     10911       104  DOPC      H8R            11.9073587387      -13.0368069871       -5.4523097108  MEMB      76              0.0000000000
     10912       104  DOPC      H8S            12.0230736511      -12.1637216254       -3.9701817569  MEMB      76              0.0000000000
     10913       104  DOPC      C29            13.9045784617      -12.8169175275       -4.4485355816  MEMB      76              0.0000000000
     10914       104  DOPC      H9R            14.7396985907      -12.7767940853       -5.1633537740  MEMB      76              0.0000000000
     10915       104  DOPC      C210           14.1757213450      -13.4270431787       -3.2330937958  MEMB      76              0.0000000000
     10916       104  DOPC      H10R           15.2494960309      -13.6127073808       -3.0829708667  MEMB      76              0.0000000000
     10917       104  DOPC      C211           13.1185030189      -13.6246517685       -2.1574935382  MEMB      76              0.0000000000
     10918       104  DOPC      H11R           12.1717018433      -13.0551949539       -2.2741458767  MEMB      76              0.0000000000
     10919       104  DOPC      H11S           13.4844367198      -13.1620379786       -1.2160038617  MEMB      76              0.0000000000
     10920       104  DOPC      C212           12.9808301043      -15.0676702110       -1.7291065546  MEMB      76              0.0000000000
     10921       104  DOPC      H12R           12.3303901504      -15.1456852557       -0.8317976322  MEMB      76              0.0000000000
     10922       104  DOPC      H12S           13.9214408297      -15.5391370883       -1.3723275896  MEMB      76              0.0000000000
     10923       104  DOPC      C213           12.3671729158      -15.9617136995       -2.8322660620  MEMB      76              0.0000000000
     10924       104  DOPC      H13R           12.1189976454      -16.9467141921       -2.3822610571  MEMB      76              0.0000000000
     10925       104  DOPC      H13S           13.0793413341      -16.2018403680       -3.6504813475  MEMB      76              0.0000000000
     10926       104  DOPC      C214           11.0493311731      -15.4421789912       -3.5329148550  MEMB      76              0.0000000000
     10927       104  DOPC      H14R           10.6949419832      -16.2249483253       -4.2371887617  MEMB      76              0.0000000000
     10928       104  DOPC      H14S           11.1716977004      -14.4538381840       -4.0253882663  MEMB      76              0.0000000000
     10929       104  DOPC      C215            9.8298318506      -15.2462413248       -2.5707099111  MEMB      76              0.0000000000
     10930       104  DOPC      H15R           10.0602616044      -14.5981105579       -1.6982699582  MEMB      76              0.0000000000
     10931       104  DOPC      H15S            9.5252657004      -16.2362891363       -2.1690058117  MEMB      76              0.0000000000
     10932       104  DOPC      C216            8.6960065355      -14.6585405899       -3.2759311817  MEMB      76              0.0000000000
     10933       104  DOPC      H16R            8.3525249734      -15.2414868756       -4.1571319619  MEMB      76              0.0000000000
     10934       104  DOPC      H16S            9.0208605764      -13.6423176011       -3.5859017505  MEMB      76              0.0000000000
     10935       104  DOPC      C217            7.4434822523      -14.4893632543       -2.3821667957  MEMB      76              0.0000000000
     10936       104  DOPC      H17R            7.6406992098      -13.7726054735       -1.5565238423  MEMB      76              0.0000000000
     10937       104  DOPC      H17S            7.2176517809      -15.4496988743       -1.8712097149  MEMB      76              0.0000000000
     10938       104  DOPC      C218            6.2051231123      -13.9530338628       -3.0740506991  MEMB      76              0.0000000000
     10939       104  DOPC      H18R            6.6138579394      -13.4897151363       -3.9974102195  MEMB      76              0.0000000000
     10940       104  DOPC      H18S            5.5809544495      -13.3502759816       -2.3802073746  MEMB      76              0.0000000000
     10941       104  DOPC      H18T            5.5323267973      -14.7937771757       -3.3475765136  MEMB      76              0.0000000000
     10942       104  DOPC      C33             7.7537488233      -12.7963207020      -12.3936821960  MEMB      76              0.0000000000
     10943       104  DOPC      H3X             8.8050681907      -12.9413965918      -12.0650461152  MEMB      76              0.0000000000
     10944       104  DOPC      H3Y             7.3191928801      -13.8106788463      -12.5223662172  MEMB      76              0.0000000000
     10945       104  DOPC      C34             7.1648690435      -11.9730253472      -11.1806785781  MEMB      76              0.0000000000
     10946       104  DOPC      H4X             6.1714468758      -11.5866998028      -11.4940247531  MEMB      76              0.0000000000
     10947       104  DOPC      H4Y             7.7614970485      -11.0402892281      -11.0892485664  MEMB      76              0.0000000000
     10948       104  DOPC      C35             7.2784303067      -12.7660679111       -9.9096899696  MEMB      76              0.0000000000
     10949       104  DOPC      H5X             8.3383034020      -12.9366944504       -9.6235492126  MEMB      76              0.0000000000
     10950       104  DOPC      H5Y             6.8418674088      -13.7831174737      -10.0063546355  MEMB      76              0.0000000000
     10951       104  DOPC      C36             6.6325067899      -11.9094607618       -8.7468407374  MEMB      76              0.0000000000
     10952       104  DOPC      H6X             7.2169351243      -10.9654072767       -8.7859232234  MEMB      76              0.0000000000
     10953       104  DOPC      H6Y             5.5664941738      -11.6344788419       -8.8962514665  MEMB      76              0.0000000000
     10954       104  DOPC      C37             6.6169425334      -12.4996111021       -7.3818508818  MEMB      76              0.0000000000
     10955       104  DOPC      H7X             5.8192721306      -12.0157996818       -6.7785513888  MEMB      76              0.0000000000
     10956       104  DOPC      H7Y             6.1830818863      -13.5158061402       -7.4977536035  MEMB      76              0.0000000000
     10957       104  DOPC      C38             7.9445629620      -12.3789918990       -6.6014542707  MEMB      76              0.0000000000
     10958       104  DOPC      H8X             8.7436914634      -13.0233415987       -7.0263405485  MEMB      76              0.0000000000
     10959       104  DOPC      H8Y             7.8343442031      -12.8277056881       -5.5910935362  MEMB      76              0.0000000000
     10960       104  DOPC      C39             8.4284652877      -10.9244114364       -6.4495104871  MEMB      76              0.0000000000
     10961       104  DOPC      H9X             9.1219004411      -10.7018837918       -7.2739069154  MEMB      76              0.0000000000
     10962       104  DOPC      C310            8.0365798166       -9.9938020484       -5.5309541183  MEMB      76              0.0000000000
     10963       104  DOPC      H10X            8.4928492288       -8.9928982290       -5.5277749280  MEMB      76              0.0000000000
     10964       104  DOPC      C311            7.0379734301      -10.0931618156       -4.4441547827  MEMB      76              0.0000000000
     10965       104  DOPC      H11X            6.4566356930      -11.0378862315       -4.5063096059  MEMB      76              0.0000000000
     10966       104  DOPC      H11Y            6.2412944976       -9.3626858236       -4.7011151781  MEMB      76              0.0000000000
     10967       104  DOPC      C312            7.5887671165       -9.7109171061       -3.0726071043  MEMB      76              0.0000000000
     10968       104  DOPC      H12X            6.7354767525       -9.5923087129       -2.3710725825  MEMB      76              0.0000000000
     10969       104  DOPC      H12Y            8.1779787684       -8.7696264782       -3.1061173355  MEMB      76              0.0000000000
     10970       104  DOPC      C313            8.6302615541      -10.7412182832       -2.5912409082  MEMB      76              0.0000000000
     10971       104  DOPC      H13X            8.1060504985      -11.7176403875       -2.5129875204  MEMB      76              0.0000000000
     10972       104  DOPC      H13Y            9.3688548957      -10.8200874986       -3.4174258260  MEMB      76              0.0000000000
     10973       104  DOPC      C314            9.2237644543      -10.5664896465       -1.1558360593  MEMB      76              0.0000000000
     10974       104  DOPC      H14X            8.3665727741      -10.7911747941       -0.4857160682  MEMB      76              0.0000000000
     10975       104  DOPC      H14Y            9.9446042437      -11.3840157556       -0.9405170861  MEMB      76              0.0000000000
     10976       104  DOPC      C315            9.8401205441       -9.1497910004       -0.9240241340  MEMB      76              0.0000000000
     10977       104  DOPC      H15X            9.1272080987       -8.2990858979       -0.8752627479  MEMB      76              0.0000000000
     10978       104  DOPC      H15Y           10.6025553589       -8.9195449171       -1.6986213644  MEMB      76              0.0000000000
     10979       104  DOPC      C316           10.4978987482       -8.8046947554        0.4507192548  MEMB      76              0.0000000000
     10980       104  DOPC      H16X           10.6752889297       -7.7120807024        0.5458388717  MEMB      76              0.0000000000
     10981       104  DOPC      H16Y            9.7842373462       -9.0041848486        1.2784942798  MEMB      76              0.0000000000
     10982       104  DOPC      C317           11.8046066596       -9.5177295463        0.6575446281  MEMB      76              0.0000000000
     10983       104  DOPC      H17X           12.3478482565       -9.6471478923       -0.3029042964  MEMB      76              0.0000000000
     10984       104  DOPC      H17Y           12.4597705977       -8.9748754447        1.3719600430  MEMB      76              0.0000000000
     10985       104  DOPC      C318           11.5980094887      -10.9077561660        1.3435128336  MEMB      76              0.0000000000
     10986       104  DOPC      H18X           11.2495736894      -11.7480487777        0.7056873125  MEMB      76              0.0000000000
     10987       104  DOPC      H18Y           12.6120082463      -11.1961640582        1.6941534968  MEMB      76              0.0000000000
     10988       104  DOPC      H18Z           10.9412169759      -10.7169699619        2.2190385765  MEMB      76              0.0000000000
     10989       105  DOPC      N              17.3752540288       -0.3012363560      -21.1342160038  MEMB      77              0.0000000000
     10990       105  DOPC      C12            16.4128934684       -0.5253247132      -19.8887269946  MEMB      77              0.0000000000
     10991       105  DOPC      H12A           15.6488429520       -1.1202978768      -20.3668836173  MEMB      77              0.0000000000
     10992       105  DOPC      H12B           15.9536669435        0.4021145810      -19.5799109002  MEMB      77              0.0000000000
     10993       105  DOPC      C13            17.2472893098       -1.5301326874      -22.0384437335  MEMB      77              0.0000000000
     10994       105  DOPC      H13A           17.7925805770       -1.4344893878      -22.9657569456  MEMB      77              0.0000000000
     10995       105  DOPC      H13B           17.7954282881       -2.2728016878      -21.4777419007  MEMB      77              0.0000000000
     10996       105  DOPC      H13C           16.2272833197       -1.8610569805      -22.1668056440  MEMB      77              0.0000000000
     10997       105  DOPC      C14            18.8332474952       -0.0973641363      -20.7818415055  MEMB      77              0.0000000000
     10998       105  DOPC      H14A           19.3880145638       -0.3040921759      -21.6851118592  MEMB      77              0.0000000000
     10999       105  DOPC      H14B           18.9303817052        0.9175239239      -20.4255169954  MEMB      77              0.0000000000
     11000       105  DOPC      H14C           19.0595921986       -0.8695856929      -20.0615346813  MEMB      77              0.0000000000
     11001       105  DOPC      C15            16.8474887649        0.8925110641      -21.8070552848  MEMB      77              0.0000000000
     11002       105  DOPC      H15A           17.0600253951        1.7760597584      -21.2234717629  MEMB      77              0.0000000000
     11003       105  DOPC      H15B           15.7856069858        0.7810780769      -21.9695045912  MEMB      77              0.0000000000
     11004       105  DOPC      H15C           17.3007229265        0.9529378580      -22.7854864250  MEMB      77              0.0000000000
     11005       105  DOPC      C11            16.9411550180       -1.2698883716      -18.7237481661  MEMB      77              0.0000000000
     11006       105  DOPC      H11A           16.2870431160       -1.8316528427      -18.0231205350  MEMB      77              0.0000000000
     11007       105  DOPC      H11B           17.4937751492       -2.1052550729      -19.2044710275  MEMB      77              0.0000000000
     11008       105  DOPC      P              17.5168986368        0.7079538820      -16.9576369108  MEMB      77              0.0000000000
     11009       105  DOPC      O13            16.5009043524        1.6335698307      -17.6009405158  MEMB      77              0.0000000000
     11010       105  DOPC      O14            18.7510775590        1.2870116099      -16.3555185145  MEMB      77              0.0000000000
     11011       105  DOPC      O12            17.8903194963       -0.4858571269      -17.9618395380  MEMB      77              0.0000000000
     11012       105  DOPC      O11            16.7529658182        0.0650995625      -15.7500328294  MEMB      77              0.0000000000
     11013       105  DOPC      C1             17.2683250234       -1.1004521693      -15.1439653867  MEMB      77              0.0000000000
     11014       105  DOPC      HA             18.3273395976       -0.9897569988      -14.8268602572  MEMB      77              0.0000000000
     11015       105  DOPC      HB             17.2182316044       -1.9693812836      -15.8344533703  MEMB      77              0.0000000000
     11016       105  DOPC      C2             16.3861917484       -1.3111354532      -13.9188943879  MEMB      77              0.0000000000
     11017       105  DOPC      HS             15.3397258595       -1.3622099631      -14.2885181499  MEMB      77              0.0000000000
     11018       105  DOPC      O21            16.5724975914       -0.1666654965      -13.0218627399  MEMB      77              0.0000000000
     11019       105  DOPC      C21            15.7268550920       -0.1670479307      -11.8944550434  MEMB      77              0.0000000000
     11020       105  DOPC      O22            14.6161432508       -0.6329369510      -11.8471049244  MEMB      77              0.0000000000
     11021       105  DOPC      C22            16.3926564476        0.5336028669      -10.6732156272  MEMB      77              0.0000000000
     11022       105  DOPC      H2R            16.4360641358        1.5919578709      -11.0083595279  MEMB      77              0.0000000000
     11023       105  DOPC      H2S            17.4368049348        0.1543892444      -10.6567248266  MEMB      77              0.0000000000
     11024       105  DOPC      C3             16.6986469897       -2.6605251634      -13.1867411868  MEMB      77              0.0000000000
     11025       105  DOPC      HX             16.2902821406       -3.4595504218      -13.8418115227  MEMB      77              0.0000000000
     11026       105  DOPC      HY             16.2133934493       -2.7338518640      -12.1900098681  MEMB      77              0.0000000000
     11027       105  DOPC      O31            18.1255985639       -2.8072557766      -12.9005877273  MEMB      77              0.0000000000
     11028       105  DOPC      C31            18.8646404218       -3.6205664730      -13.4999137437  MEMB      77              0.0000000000
     11029       105  DOPC      O32            18.5316625235       -4.5381146453      -14.2391543363  MEMB      77              0.0000000000
     11030       105  DOPC      C32            20.3555904891       -3.3521031237      -13.1203443079  MEMB      77              0.0000000000
     11031       105  DOPC      H2X            20.8047649524       -4.3579642951      -13.2645908991  MEMB      77              0.0000000000
     11032       105  DOPC      H2Y            20.8947766110       -2.7459047642      -13.8793721520  MEMB      77              0.0000000000
     11033       105  DOPC      C23            15.6376159996        0.4201467893       -9.4114441413  MEMB      77              0.0000000000
     11034       105  DOPC      H3R            14.5649877500        0.6471033952       -9.5911126388  MEMB      77              0.0000000000
     11035       105  DOPC      H3S            16.0667243484        1.2732116036       -8.8435818088  MEMB      77              0.0000000000
     11036       105  DOPC      C24            15.9170302630       -0.7492018156       -8.5342076055  MEMB      77              0.0000000000
     11037       105  DOPC      H4R            15.4545020798       -0.4409053563       -7.5722609626  MEMB      77              0.0000000000
     11038       105  DOPC      H4S            17.0142835753       -0.8646102123       -8.4036805289  MEMB      77              0.0000000000
     11039       105  DOPC      C25            15.3970042991       -2.0496905610       -9.1462057526  MEMB      77              0.0000000000
     11040       105  DOPC      H5R            16.0953551001       -2.2929900648       -9.9753208093  MEMB      77              0.0000000000
     11041       105  DOPC      H5S            14.3633450895       -1.8396928782       -9.4951613855  MEMB      77              0.0000000000
     11042       105  DOPC      C26            15.3288848242       -3.3127016840       -8.2580632571  MEMB      77              0.0000000000
     11043       105  DOPC      H6R            14.8716642578       -4.1402014609       -8.8415991758  MEMB      77              0.0000000000
     11044       105  DOPC      H6S            14.6553021850       -3.2694879992       -7.3756009271  MEMB      77              0.0000000000
     11045       105  DOPC      C27            16.6777604150       -3.8882645711       -7.7928229851  MEMB      77              0.0000000000
     11046       105  DOPC      H7R            17.4617220788       -3.9058489303       -8.5798528858  MEMB      77              0.0000000000
     11047       105  DOPC      H7S            16.5968668612       -4.9286582922       -7.4115654528  MEMB      77              0.0000000000
     11048       105  DOPC      C28            17.2542820340       -3.3093158885       -6.4749670315  MEMB      77              0.0000000000
     11049       105  DOPC      H8R            17.2199965180       -2.2132542169       -6.6532755903  MEMB      77              0.0000000000
     11050       105  DOPC      H8S            18.3173991075       -3.5763983724       -6.2939415072  MEMB      77              0.0000000000
     11051       105  DOPC      C29            16.4040408526       -3.4779542603       -5.2393228068  MEMB      77              0.0000000000
     11052       105  DOPC      H9R            15.4661934985       -2.9138789437       -5.1285917017  MEMB      77              0.0000000000
     11053       105  DOPC      C210           16.8289414756       -4.1742418009       -4.1497602275  MEMB      77              0.0000000000
     11054       105  DOPC      H10R           16.1359959410       -4.2730322217       -3.3011926802  MEMB      77              0.0000000000
     11055       105  DOPC      C211           18.1187157901       -5.0286285698       -3.9709955615  MEMB      77              0.0000000000
     11056       105  DOPC      H11R           18.5434575160       -5.1926901593       -4.9844053964  MEMB      77              0.0000000000
     11057       105  DOPC      H11S           17.7869556644       -5.9616140435       -3.4672150208  MEMB      77              0.0000000000
     11058       105  DOPC      C212           19.1105223005       -4.3691989914       -3.1191752189  MEMB      77              0.0000000000
     11059       105  DOPC      H12R           19.8545507604       -5.1586461383       -2.8793510537  MEMB      77              0.0000000000
     11060       105  DOPC      H12S           18.7128535438       -4.1524007945       -2.1046910026  MEMB      77              0.0000000000
     11061       105  DOPC      C213           19.9114178265       -3.2671214996       -3.8685435683  MEMB      77              0.0000000000
     11062       105  DOPC      H13R           19.2537042757       -2.6618195692       -4.5283486098  MEMB      77              0.0000000000
     11063       105  DOPC      H13S           20.5621292250       -3.8948327547       -4.5142014690  MEMB      77              0.0000000000
     11064       105  DOPC      C214           20.6719640976       -2.2568837762       -2.8965086399  MEMB      77              0.0000000000
     11065       105  DOPC      H14R           21.2568945624       -2.8570407645       -2.1671322701  MEMB      77              0.0000000000
     11066       105  DOPC      H14S           19.8540779931       -1.6797295240       -2.4145589658  MEMB      77              0.0000000000
     11067       105  DOPC      C215           21.6532265258       -1.3545124000       -3.6217237316  MEMB      77              0.0000000000
     11068       105  DOPC      H15R           21.1576845981       -0.6220158245       -4.2941872418  MEMB      77              0.0000000000
     11069       105  DOPC      H15S           22.2489736635       -1.9776491853       -4.3225139223  MEMB      77              0.0000000000
     11070       105  DOPC      C216           22.6921998410       -0.7765162149       -2.7268797428  MEMB      77              0.0000000000
     11071       105  DOPC      H16R           23.4109012774       -0.0775005538       -3.2055926691  MEMB      77              0.0000000000
     11072       105  DOPC      H16S           23.2890428442       -1.6185755301       -2.3157394069  MEMB      77              0.0000000000
     11073       105  DOPC      C217           22.1394053332        0.1000274342       -1.5633051309  MEMB      77              0.0000000000
     11074       105  DOPC      H17R           22.9007501000        0.5905805247       -0.9198511955  MEMB      77              0.0000000000
     11075       105  DOPC      H17S           21.6993916576       -0.6263595584       -0.8470148553  MEMB      77              0.0000000000
     11076       105  DOPC      C218           20.9537846356        1.0586244452       -1.8216578437  MEMB      77              0.0000000000
     11077       105  DOPC      H18R           20.1257737623        0.4024986451       -2.1654864283  MEMB      77              0.0000000000
     11078       105  DOPC      H18S           21.2655333335        1.5790357034       -2.7524122381  MEMB      77              0.0000000000
     11079       105  DOPC      H18T           20.6753801199        1.7761662717       -1.0204427752  MEMB      77              0.0000000000
     11080       105  DOPC      C33            20.6203761234       -2.7596983996      -11.7780780860  MEMB      77              0.0000000000
     11081       105  DOPC      H3X            20.2734807339       -1.7118875767      -11.9048731278  MEMB      77              0.0000000000
     11082       105  DOPC      H3Y            21.7122447654       -2.7517824022      -11.5729416287  MEMB      77              0.0000000000
     11083       105  DOPC      C34            19.9645984139       -3.2482994358      -10.5017623090  MEMB      77              0.0000000000
     11084       105  DOPC      H4X            19.8382906234       -4.3519614854      -10.4845125902  MEMB      77              0.0000000000
     11085       105  DOPC      H4Y            18.8859958601       -2.9824172090      -10.4861372125  MEMB      77              0.0000000000
     11086       105  DOPC      C35            20.4856726367       -2.8969908979       -9.1215697968  MEMB      77              0.0000000000
     11087       105  DOPC      H5X            21.4321789612       -3.4698819427       -9.0203633893  MEMB      77              0.0000000000
     11088       105  DOPC      H5Y            19.7064352847       -3.2195787767       -8.3983497080  MEMB      77              0.0000000000
     11089       105  DOPC      C36            20.7995403551       -1.4120950304       -8.9842591463  MEMB      77              0.0000000000
     11090       105  DOPC      H6X            21.6701656192       -1.0899626520       -9.5946384365  MEMB      77              0.0000000000
     11091       105  DOPC      H6Y            20.0085479699       -0.8566775379       -9.5321306124  MEMB      77              0.0000000000
     11092       105  DOPC      C37            21.0768774277       -0.8181217591       -7.5808182043  MEMB      77              0.0000000000
     11093       105  DOPC      H7X            20.4740164364       -1.3460429263       -6.8112869337  MEMB      77              0.0000000000
     11094       105  DOPC      H7Y            22.1479896872       -1.0635532843       -7.4171022622  MEMB      77              0.0000000000
     11095       105  DOPC      C38            20.8625508168        0.6458397463       -7.5010217442  MEMB      77              0.0000000000
     11096       105  DOPC      H8X            21.5500575562        1.1344846444       -8.2241275258  MEMB      77              0.0000000000
     11097       105  DOPC      H8Y            21.2606249143        0.9452726493       -6.5079469888  MEMB      77              0.0000000000
     11098       105  DOPC      C39            19.4561259412        1.2234708342       -7.6747655960  MEMB      77              0.0000000000
     11099       105  DOPC      H9X            19.0138022642        1.0171516348       -8.6605561675  MEMB      77              0.0000000000
     11100       105  DOPC      C310           18.7864433986        1.8945934343       -6.7473582950  MEMB      77              0.0000000000
     11101       105  DOPC      H10X           17.8592387767        2.4050938675       -7.0468260567  MEMB      77              0.0000000000
     11102       105  DOPC      C311           19.1767395816        2.2916410155       -5.3686948952  MEMB      77              0.0000000000
     11103       105  DOPC      H11X           19.7884572073        3.2190079455       -5.3580665574  MEMB      77              0.0000000000
     11104       105  DOPC      H11Y           19.8570628191        1.4879483087       -5.0143518389  MEMB      77              0.0000000000
     11105       105  DOPC      C312           18.0605717278        2.5770028760       -4.4263890951  MEMB      77              0.0000000000
     11106       105  DOPC      H12X           17.6099517550        3.4966286449       -4.8571464455  MEMB      77              0.0000000000
     11107       105  DOPC      H12Y           18.5466693104        2.8137357307       -3.4558289879  MEMB      77              0.0000000000
     11108       105  DOPC      C313           17.1803369266        1.3722429659       -4.1570381563  MEMB      77              0.0000000000
     11109       105  DOPC      H13X           16.9338262135        0.8314533573       -5.0957073137  MEMB      77              0.0000000000
     11110       105  DOPC      H13Y           17.6615157999        0.6515997632       -3.4617241484  MEMB      77              0.0000000000
     11111       105  DOPC      C314           15.8043577998        1.7259894460       -3.4983429940  MEMB      77              0.0000000000
     11112       105  DOPC      H14X           15.9540332947        2.6989693360       -2.9833390530  MEMB      77              0.0000000000
     11113       105  DOPC      H14Y           15.0060637417        2.0036758013       -4.2194094950  MEMB      77              0.0000000000
     11114       105  DOPC      C315           15.4078448817        0.7561322467       -2.3788448879  MEMB      77              0.0000000000
     11115       105  DOPC      H15X           14.4877189923        1.1632529143       -1.9077371705  MEMB      77              0.0000000000
     11116       105  DOPC      H15Y           16.1010491155        0.8493617391       -1.5156550403  MEMB      77              0.0000000000
     11117       105  DOPC      C316           15.2262651935       -0.7264116490       -2.8127361724  MEMB      77              0.0000000000
     11118       105  DOPC      H16X           14.6586177956       -0.7295952088       -3.7677684174  MEMB      77              0.0000000000
     11119       105  DOPC      H16Y           16.3118358750       -0.8897596058       -2.9835422210  MEMB      77              0.0000000000
     11120       105  DOPC      C317           14.5025781534       -1.4553445059       -1.6523251937  MEMB      77              0.0000000000
     11121       105  DOPC      H17X           13.6953873633       -0.7569364244       -1.3441214034  MEMB      77              0.0000000000
     11122       105  DOPC      H17Y           13.9427541268       -2.3903683795       -1.8683079126  MEMB      77              0.0000000000
     11123       105  DOPC      C318           15.3717889707       -1.6823788715       -0.3669195635  MEMB      77              0.0000000000
     11124       105  DOPC      H18X           16.0838896658       -0.8344484363       -0.4577370953  MEMB      77              0.0000000000
     11125       105  DOPC      H18Y           14.7564402906       -1.5995970346        0.5543913469  MEMB      77              0.0000000000
     11126       105  DOPC      H18Z           15.9653283397       -2.6181528275       -0.2871743940  MEMB      77              0.0000000000
     11127       106  DOPC      N              15.1671719895        7.1223001183      -20.6449030657  MEMB      78              0.0000000000
     11128       106  DOPC      C12            15.9463937001        8.3975407059      -20.8668930212  MEMB      78              0.0000000000
     11129       106  DOPC      H12A           15.3519059238        9.1644277710      -21.3410960565  MEMB      78              0.0000000000
     11130       106  DOPC      H12B           16.6999560092        8.1903133643      -21.6122793864  MEMB      78              0.0000000000
     11131       106  DOPC      C13            13.7639088207        7.2597226105      -20.0500389553  MEMB      78              0.0000000000
     11132       106  DOPC      H13A           13.3082421831        6.2899039668      -19.9150603282  MEMB      78              0.0000000000
     11133       106  DOPC      H13B           13.8469988404        7.7319880544      -19.0823295974  MEMB      78              0.0000000000
     11134       106  DOPC      H13C           13.2401281340        7.8336423946      -20.8001521494  MEMB      78              0.0000000000
     11135       106  DOPC      C14            15.9596161462        6.2688730379      -19.6767264596  MEMB      78              0.0000000000
     11136       106  DOPC      H14A           17.0127301247        6.1509428093      -19.8851574714  MEMB      78              0.0000000000
     11137       106  DOPC      H14B           15.7727823450        6.7035795195      -18.7058900403  MEMB      78              0.0000000000
     11138       106  DOPC      H14C           15.5001756504        5.2926950175      -19.6278292016  MEMB      78              0.0000000000
     11139       106  DOPC      C15            15.0709669955        6.4049733569      -21.9153942488  MEMB      78              0.0000000000
     11140       106  DOPC      H15A           14.7349247918        5.4048268744      -21.6847808486  MEMB      78              0.0000000000
     11141       106  DOPC      H15B           15.9825879998        6.4913084662      -22.4880141107  MEMB      78              0.0000000000
     11142       106  DOPC      H15C           14.3500671142        6.8709477845      -22.5708112308  MEMB      78              0.0000000000
     11143       106  DOPC      C11            16.6343810593        9.1255837774      -19.6655771311  MEMB      78              0.0000000000
     11144       106  DOPC      H11A           17.6748426227        8.7633293369      -19.5222857567  MEMB      78              0.0000000000
     11145       106  DOPC      H11B           16.7382284182       10.1638281553      -20.0471334910  MEMB      78              0.0000000000
     11146       106  DOPC      P              16.2638715468       10.2360498889      -17.2889600439  MEMB      78              0.0000000000
     11147       106  DOPC      O13            16.3255198102       11.6687583847      -17.7202940318  MEMB      78              0.0000000000
     11148       106  DOPC      O14            17.4056534355        9.7058025931      -16.5332947349  MEMB      78              0.0000000000
     11149       106  DOPC      O12            15.8035715056        9.2269890161      -18.4647172349  MEMB      78              0.0000000000
     11150       106  DOPC      O11            15.0407491340       10.1531817313      -16.1732010749  MEMB      78              0.0000000000
     11151       106  DOPC      C1             14.1329583997        9.1539267835      -16.4265390333  MEMB      78              0.0000000000
     11152       106  DOPC      HA             14.6375565174        8.1643214657      -16.4069676784  MEMB      78              0.0000000000
     11153       106  DOPC      HB             13.5554803211        9.3031031863      -17.3638685552  MEMB      78              0.0000000000
     11154       106  DOPC      C2             13.0629257886        9.1743127685      -15.2491811112  MEMB      78              0.0000000000
     11155       106  DOPC      HS             12.5671996678       10.1685416486      -15.2584426562  MEMB      78              0.0000000000
     11156       106  DOPC      O21            13.7777644891        9.0916263888      -13.9911440606  MEMB      78              0.0000000000
     11157       106  DOPC      C21            13.1354487652        9.4967206622      -12.9183423523  MEMB      78              0.0000000000
     11158       106  DOPC      O22            12.1326492611       10.1986500122      -12.8349528004  MEMB      78              0.0000000000
     11159       106  DOPC      C22            13.8100902816        8.9447515544      -11.7234866456  MEMB      78              0.0000000000
     11160       106  DOPC      H2R            14.6440709867        9.6396915506      -11.4871491333  MEMB      78              0.0000000000
     11161       106  DOPC      H2S            14.1753735594        7.9377911036      -12.0183084087  MEMB      78              0.0000000000
     11162       106  DOPC      C3             12.0084555185        8.0812811797      -15.4545061185  MEMB      78              0.0000000000
     11163       106  DOPC      HX             11.5750324896        8.1280367198      -16.4764062127  MEMB      78              0.0000000000
     11164       106  DOPC      HY             11.0654273411        8.3048218061      -14.9113223597  MEMB      78              0.0000000000
     11165       106  DOPC      O31            12.4779096640        6.7930815755      -15.1329300751  MEMB      78              0.0000000000
     11166       106  DOPC      C31            12.1676258046        6.2344071864      -13.9342345513  MEMB      78              0.0000000000
     11167       106  DOPC      O32            11.4916393924        6.7327363569      -13.0842805268  MEMB      78              0.0000000000
     11168       106  DOPC      C32            12.8722884336        4.8388474789      -13.8105892267  MEMB      78              0.0000000000
     11169       106  DOPC      H2X            12.1934206576        3.9826486984      -14.0115446113  MEMB      78              0.0000000000
     11170       106  DOPC      H2Y            13.5698751212        4.7874326175      -14.6737522113  MEMB      78              0.0000000000
     11171       106  DOPC      C23            12.8143500128        8.9564710722      -10.4854349519  MEMB      78              0.0000000000
     11172       106  DOPC      H3R            11.9327361021        8.2976368272      -10.6371427610  MEMB      78              0.0000000000
     11173       106  DOPC      H3S            12.3749835866        9.9582312010      -10.2911287307  MEMB      78              0.0000000000
     11174       106  DOPC      C24            13.3936075508        8.4039156562       -9.1776590254  MEMB      78              0.0000000000
     11175       106  DOPC      H4R            12.6804942184        8.6184102056       -8.3531697146  MEMB      78              0.0000000000
     11176       106  DOPC      H4S            14.2987766024        8.9898153632       -8.9098688746  MEMB      78              0.0000000000
     11177       106  DOPC      C25            13.6834130044        6.9781271017       -9.1025295922  MEMB      78              0.0000000000
     11178       106  DOPC      H5R            14.2233994139        6.7527120217       -8.1581118643  MEMB      78              0.0000000000
     11179       106  DOPC      H5S            14.4143341679        6.6283230813       -9.8626037841  MEMB      78              0.0000000000
     11180       106  DOPC      C26            12.4791694413        6.0458811360       -9.1105702780  MEMB      78              0.0000000000
     11181       106  DOPC      H6R            12.8502653813        5.0082610433       -8.9693139480  MEMB      78              0.0000000000
     11182       106  DOPC      H6S            12.0642703200        6.1521739906      -10.1356959686  MEMB      78              0.0000000000
     11183       106  DOPC      C27            11.2593642740        6.2542579106       -8.1560313786  MEMB      78              0.0000000000
     11184       106  DOPC      H7R            10.3846855710        5.5827075264       -8.2912286649  MEMB      78              0.0000000000
     11185       106  DOPC      H7S            10.8974250709        7.2877772445       -8.3435388971  MEMB      78              0.0000000000
     11186       106  DOPC      C28            11.7881994998        6.2626976569       -6.7167171120  MEMB      78              0.0000000000
     11187       106  DOPC      H8R            11.0373504598        6.8347632733       -6.1308093091  MEMB      78              0.0000000000
     11188       106  DOPC      H8S            12.6719330324        6.9319518522       -6.6429973283  MEMB      78              0.0000000000
     11189       106  DOPC      C29            12.0110533364        4.8485890283       -6.1315882487  MEMB      78              0.0000000000
     11190       106  DOPC      H9R            12.9093263995        4.3264431037       -6.4927930212  MEMB      78              0.0000000000
     11191       106  DOPC      C210           11.2839952861        4.2370797064       -5.1830742361  MEMB      78              0.0000000000
     11192       106  DOPC      H10R           11.6897299899        3.2907473097       -4.7959888722  MEMB      78              0.0000000000
     11193       106  DOPC      C211           10.0742290637        4.6743455321       -4.3348612508  MEMB      78              0.0000000000
     11194       106  DOPC      H11R            9.2440001236        4.1176000408       -4.8197064812  MEMB      78              0.0000000000
     11195       106  DOPC      H11S            9.8706788437        5.7619964877       -4.4343779276  MEMB      78              0.0000000000
     11196       106  DOPC      C212           10.3256381225        4.6699073588       -2.8102902856  MEMB      78              0.0000000000
     11197       106  DOPC      H12R           10.4379433938        3.6205745396       -2.4630038501  MEMB      78              0.0000000000
     11198       106  DOPC      H12S            9.3739427592        5.0422009988       -2.3744093084  MEMB      78              0.0000000000
     11199       106  DOPC      C213           11.5401781804        5.5419346022       -2.2617375480  MEMB      78              0.0000000000
     11200       106  DOPC      H13R           11.3913131678        6.6274057623       -2.4458937112  MEMB      78              0.0000000000
     11201       106  DOPC      H13S           12.4498141104        5.3727660506       -2.8767713760  MEMB      78              0.0000000000
     11202       106  DOPC      C214           11.7416142312        5.4546874398       -0.7363944382  MEMB      78              0.0000000000
     11203       106  DOPC      H14R           12.0833413642        4.4236981296       -0.5027171804  MEMB      78              0.0000000000
     11204       106  DOPC      H14S           10.7774484231        5.3625453860       -0.1921374526  MEMB      78              0.0000000000
     11205       106  DOPC      C215           12.4449557503        6.5575801475       -0.0214003877  MEMB      78              0.0000000000
     11206       106  DOPC      H15R           13.4619199436        6.6147406360       -0.4650645036  MEMB      78              0.0000000000
     11207       106  DOPC      H15S           12.6104161127        6.1847366781        1.0120073143  MEMB      78              0.0000000000
     11208       106  DOPC      C216           11.7996332870        7.9137217961       -0.1732741029  MEMB      78              0.0000000000
     11209       106  DOPC      H16R           11.3256420488        8.2030717539       -1.1355270852  MEMB      78              0.0000000000
     11210       106  DOPC      H16S           12.5133850322        8.7610769777       -0.0903965176  MEMB      78              0.0000000000
     11211       106  DOPC      C217           10.7086189465        8.0077768754        0.8951562583  MEMB      78              0.0000000000
     11212       106  DOPC      H17R           10.8760743721        8.6561053773        1.7816945928  MEMB      78              0.0000000000
     11213       106  DOPC      H17S           10.4551748588        6.9692941859        1.1978777389  MEMB      78              0.0000000000
     11214       106  DOPC      C218            9.3459828913        8.5640311476        0.5415246886  MEMB      78              0.0000000000
     11215       106  DOPC      H18R            8.6581120197        8.6880370185        1.4051075120  MEMB      78              0.0000000000
     11216       106  DOPC      H18S            8.8263200008        7.8818417847       -0.1647962897  MEMB      78              0.0000000000
     11217       106  DOPC      H18T            9.3831909739        9.5761414871        0.0848299391  MEMB      78              0.0000000000
     11218       106  DOPC      C33            13.6519896367        4.6743604537      -12.4813885155  MEMB      78              0.0000000000
     11219       106  DOPC      H3X            12.9091505338        4.8699280653      -11.6787278882  MEMB      78              0.0000000000
     11220       106  DOPC      H3Y            14.3645086957        5.5119564776      -12.6397239356  MEMB      78              0.0000000000
     11221       106  DOPC      C34            14.3271556050        3.3381993945      -12.4114300202  MEMB      78              0.0000000000
     11222       106  DOPC      H4X            15.1574615613        3.2288856654      -13.1414736273  MEMB      78              0.0000000000
     11223       106  DOPC      H4Y            13.6445247713        2.4845050130      -12.6102827082  MEMB      78              0.0000000000
     11224       106  DOPC      C35            15.1016065092        3.1698220045      -11.0831091090  MEMB      78              0.0000000000
     11225       106  DOPC      H5X            15.3373413692        2.0917123642      -10.9549317172  MEMB      78              0.0000000000
     11226       106  DOPC      H5Y            14.4365489950        3.5446860671      -10.2759558003  MEMB      78              0.0000000000
     11227       106  DOPC      C36            16.3692412245        4.0739050002      -10.9947762149  MEMB      78              0.0000000000
     11228       106  DOPC      H6X            17.0790401245        3.7033950684      -11.7649899972  MEMB      78              0.0000000000
     11229       106  DOPC      H6Y            16.0830491538        5.1215760941      -11.2288701192  MEMB      78              0.0000000000
     11230       106  DOPC      C37            17.0718980108        3.8446618825       -9.6448853386  MEMB      78              0.0000000000
     11231       106  DOPC      H7X            17.4087714241        2.7876798536       -9.5846637055  MEMB      78              0.0000000000
     11232       106  DOPC      H7Y            18.0444597888        4.3816551120       -9.6357775517  MEMB      78              0.0000000000
     11233       106  DOPC      C38            16.2092349514        4.1914575976       -8.4123455722  MEMB      78              0.0000000000
     11234       106  DOPC      H8X            15.2309908789        3.6733674075       -8.5069080974  MEMB      78              0.0000000000
     11235       106  DOPC      H8Y            15.9741306381        5.2767911386       -8.4454886835  MEMB      78              0.0000000000
     11236       106  DOPC      C39            16.9096603825        3.7336630655       -7.1965798096  MEMB      78              0.0000000000
     11237       106  DOPC      H9X            17.4467726085        2.7822270805       -7.3241718153  MEMB      78              0.0000000000
     11238       106  DOPC      C310           16.9197693321        4.4041709419       -6.0591157498  MEMB      78              0.0000000000
     11239       106  DOPC      H10X           17.5383920983        3.9307480603       -5.2824711855  MEMB      78              0.0000000000
     11240       106  DOPC      C311           16.2083806052        5.7050407936       -5.8381648089  MEMB      78              0.0000000000
     11241       106  DOPC      H11X           15.8423234161        5.8860071728       -4.8049296134  MEMB      78              0.0000000000
     11242       106  DOPC      H11Y           15.2387134679        5.6081293676       -6.3717146194  MEMB      78              0.0000000000
     11243       106  DOPC      C312           16.8121002007        7.0466906799       -6.3930878565  MEMB      78              0.0000000000
     11244       106  DOPC      H12X           15.9879184487        7.7905147022       -6.3510026773  MEMB      78              0.0000000000
     11245       106  DOPC      H12Y           17.2633505207        6.8303632289       -7.3850032036  MEMB      78              0.0000000000
     11246       106  DOPC      C313           17.9188166571        7.4761988590       -5.4052967494  MEMB      78              0.0000000000
     11247       106  DOPC      H13X           18.5048759448        6.5669578636       -5.1520447876  MEMB      78              0.0000000000
     11248       106  DOPC      H13Y           18.5547749041        8.1004984447       -6.0687178955  MEMB      78              0.0000000000
     11249       106  DOPC      C314           17.5778521666        8.2629401035       -4.1068363994  MEMB      78              0.0000000000
     11250       106  DOPC      H14X           17.0868259171        9.2129409335       -4.4080212150  MEMB      78              0.0000000000
     11251       106  DOPC      H14Y           16.9211181383        7.5903982585       -3.5146295676  MEMB      78              0.0000000000
     11252       106  DOPC      C315           18.9087646485        8.7807836059       -3.4185087380  MEMB      78              0.0000000000
     11253       106  DOPC      H15X           19.2658279351        9.4541275706       -4.2268618583  MEMB      78              0.0000000000
     11254       106  DOPC      H15Y           19.6478730143        7.9661377877       -3.2623286046  MEMB      78              0.0000000000
     11255       106  DOPC      C316           18.9106061427        9.4929347845       -2.0479535365  MEMB      78              0.0000000000
     11256       106  DOPC      H16X           19.8958630857        9.8167499854       -1.6495393285  MEMB      78              0.0000000000
     11257       106  DOPC      H16Y           18.3222811078       10.4279845820       -2.1657523762  MEMB      78              0.0000000000
     11258       106  DOPC      C317           18.1829011156        8.5728851336       -1.0337567442  MEMB      78              0.0000000000
     11259       106  DOPC      H17X           17.2010061521        8.2068780004       -1.4028671308  MEMB      78              0.0000000000
     11260       106  DOPC      H17Y           18.8457528113        7.6973592209       -0.8652259994  MEMB      78              0.0000000000
     11261       106  DOPC      C318           17.8273253690        9.1840237433        0.3162276850  MEMB      78              0.0000000000
     11262       106  DOPC      H18X           16.8888388064        9.7763496497        0.2641300602  MEMB      78              0.0000000000
     11263       106  DOPC      H18Y           17.5721377085        8.2871251676        0.9201919332  MEMB      78              0.0000000000
     11264       106  DOPC      H18Z           18.7182667456        9.6986908900        0.7353476488  MEMB      78              0.0000000000
     11265       107  DOPC      N              18.2794509384      -10.2242139717      -19.6094285967  MEMB      79              0.0000000000
     11266       107  DOPC      C12            18.5196097747       -9.2641219346      -18.4707330122  MEMB      79              0.0000000000
     11267       107  DOPC      H12A           19.1286732244       -9.7056397951      -17.6958112087  MEMB      79              0.0000000000
     11268       107  DOPC      H12B           17.5299114274       -9.1247115525      -18.0615119092  MEMB      79              0.0000000000
     11269       107  DOPC      C13            17.1833426883       -9.6991709957      -20.5469756123  MEMB      79              0.0000000000
     11270       107  DOPC      H13A           17.4461294542       -8.7600177270      -21.0110169618  MEMB      79              0.0000000000
     11271       107  DOPC      H13B           16.9780281060      -10.3692610040      -21.3686964348  MEMB      79              0.0000000000
     11272       107  DOPC      H13C           16.2959464822       -9.6299982512      -19.9353031378  MEMB      79              0.0000000000
     11273       107  DOPC      C14            17.8547686346      -11.6020934063      -19.0767669452  MEMB      79              0.0000000000
     11274       107  DOPC      H14A           18.6986829065      -12.1039921740      -18.6269822115  MEMB      79              0.0000000000
     11275       107  DOPC      H14B           17.0068670852      -11.5387762370      -18.4108436647  MEMB      79              0.0000000000
     11276       107  DOPC      H14C           17.5223846644      -12.1603627830      -19.9394698915  MEMB      79              0.0000000000
     11277       107  DOPC      C15            19.6814542419      -10.4424782768      -20.2852513436  MEMB      79              0.0000000000
     11278       107  DOPC      H15A           20.3276639029      -10.7620319175      -19.4810755562  MEMB      79              0.0000000000
     11279       107  DOPC      H15B           20.1169725618       -9.5067113945      -20.6031571928  MEMB      79              0.0000000000
     11280       107  DOPC      H15C           19.6329165523      -11.2892800818      -20.9538102514  MEMB      79              0.0000000000
     11281       107  DOPC      C11            19.0357262941       -7.8766426907      -18.7556010785  MEMB      79              0.0000000000
     11282       107  DOPC      H11A           18.3294381260       -7.3213616135      -19.4091613638  MEMB      79              0.0000000000
     11283       107  DOPC      H11B           19.0143827314       -7.2447631748      -17.8420399970  MEMB      79              0.0000000000
     11284       107  DOPC      P              21.6569673975       -8.1853003363      -18.4678435376  MEMB      79              0.0000000000
     11285       107  DOPC      O13            22.8222316919       -8.0300888702      -19.3639226527  MEMB      79              0.0000000000
     11286       107  DOPC      O14            21.4378291422       -9.5080300987      -17.8412470693  MEMB      79              0.0000000000
     11287       107  DOPC      O12            20.3604772106       -7.7836823620      -19.2967625549  MEMB      79              0.0000000000
     11288       107  DOPC      O11            21.6629856388       -7.1393816568      -17.2854675923  MEMB      79              0.0000000000
     11289       107  DOPC      C1             22.6987526232       -7.1791074670      -16.3372473964  MEMB      79              0.0000000000
     11290       107  DOPC      HA             23.2630552861       -6.2267210828      -16.4312883871  MEMB      79              0.0000000000
     11291       107  DOPC      HB             23.4952919981       -7.9390876211      -16.4864994510  MEMB      79              0.0000000000
     11292       107  DOPC      C2             22.0147707413       -7.1986311455      -14.9352107690  MEMB      79              0.0000000000
     11293       107  DOPC      HS             22.8021773735       -7.2558300178      -14.1535201260  MEMB      79              0.0000000000
     11294       107  DOPC      O21            21.1413855580       -8.3305779754      -14.7732599435  MEMB      79              0.0000000000
     11295       107  DOPC      C21            21.7159043194       -9.5356600878      -14.6891326607  MEMB      79              0.0000000000
     11296       107  DOPC      O22            22.8269746035       -9.8957976163      -15.1340659157  MEMB      79              0.0000000000
     11297       107  DOPC      C22            20.8711057370      -10.4907250594      -13.8873204918  MEMB      79              0.0000000000
     11298       107  DOPC      H2R            20.6858427037      -11.3318792227      -14.5890740637  MEMB      79              0.0000000000
     11299       107  DOPC      H2S            19.9217768183       -9.9885839785      -13.6028035124  MEMB      79              0.0000000000
     11300       107  DOPC      C3             21.2484367342       -5.8811249420      -14.6890084265  MEMB      79              0.0000000000
     11301       107  DOPC      HX             20.3631592066       -5.8435980738      -15.3592294172  MEMB      79              0.0000000000
     11302       107  DOPC      HY             21.9269529071       -5.0148524688      -14.8423335673  MEMB      79              0.0000000000
     11303       107  DOPC      O31            20.6820336050       -5.8170001453      -13.2797312520  MEMB      79              0.0000000000
     11304       107  DOPC      C31            21.5264839111       -5.5534836885      -12.3211235851  MEMB      79              0.0000000000
     11305       107  DOPC      O32            22.6996915506       -5.3242512358      -12.4316900288  MEMB      79              0.0000000000
     11306       107  DOPC      C32            20.7584466850       -5.1704482063      -10.9660928565  MEMB      79              0.0000000000
     11307       107  DOPC      H2X            21.5603009177       -5.1940914393      -10.1974624747  MEMB      79              0.0000000000
     11308       107  DOPC      H2Y            20.3376124423       -4.1470986860      -11.0659696676  MEMB      79              0.0000000000
     11309       107  DOPC      C23            21.5707258472      -10.9844871902      -12.6840420254  MEMB      79              0.0000000000
     11310       107  DOPC      H3R            21.9284214574      -10.1466352146      -12.0481340611  MEMB      79              0.0000000000
     11311       107  DOPC      H3S            22.4352938894      -11.5519850464      -13.0899846103  MEMB      79              0.0000000000
     11312       107  DOPC      C24            20.7541245629      -11.9091555225      -11.7397221620  MEMB      79              0.0000000000
     11313       107  DOPC      H4R            20.1989174547      -12.6614386554      -12.3398358218  MEMB      79              0.0000000000
     11314       107  DOPC      H4S            20.0692062933      -11.2159196918      -11.2062130712  MEMB      79              0.0000000000
     11315       107  DOPC      C25            21.6616623767      -12.5113737621      -10.6224349786  MEMB      79              0.0000000000
     11316       107  DOPC      H5R            22.1553808577      -13.4624527894      -10.9157130621  MEMB      79              0.0000000000
     11317       107  DOPC      H5S            21.1323624080      -12.8130534979       -9.6933754353  MEMB      79              0.0000000000
     11318       107  DOPC      C26            22.7665947086      -11.5349050470      -10.0086010509  MEMB      79              0.0000000000
     11319       107  DOPC      H6R            23.6329328159      -11.4006090868      -10.6910548877  MEMB      79              0.0000000000
     11320       107  DOPC      H6S            23.2142393556      -12.0801288237       -9.1503085601  MEMB      79              0.0000000000
     11321       107  DOPC      C27            21.9974545827      -10.3807457553       -9.3804773903  MEMB      79              0.0000000000
     11322       107  DOPC      H7R            21.3616890327      -10.7699333188       -8.5566717628  MEMB      79              0.0000000000
     11323       107  DOPC      H7S            21.3257728202       -9.9223727961      -10.1374836271  MEMB      79              0.0000000000
     11324       107  DOPC      C28            22.8929749067       -9.3591204399       -8.7143602281  MEMB      79              0.0000000000
     11325       107  DOPC      H8R            22.3007534339       -8.5344950142       -8.2631533831  MEMB      79              0.0000000000
     11326       107  DOPC      H8S            23.5215171166       -8.9935957569       -9.5543881146  MEMB      79              0.0000000000
     11327       107  DOPC      C29            23.8202998310       -9.8794085582       -7.6404832764  MEMB      79              0.0000000000
     11328       107  DOPC      H9R            24.5357491845      -10.6017583097       -8.0604161814  MEMB      79              0.0000000000
     11329       107  DOPC      C210           23.9650668024       -9.5496892210       -6.3741683330  MEMB      79              0.0000000000
     11330       107  DOPC      H10R           24.7929931043       -9.9571576141       -5.7754136085  MEMB      79              0.0000000000
     11331       107  DOPC      C211           23.1695830576       -8.4691691705       -5.6133128860  MEMB      79              0.0000000000
     11332       107  DOPC      H11R           22.7491653031       -7.7673274219       -6.3649696045  MEMB      79              0.0000000000
     11333       107  DOPC      H11S           23.9697922813       -7.9887273786       -5.0106836768  MEMB      79              0.0000000000
     11334       107  DOPC      C212           22.0148681656       -8.8218251924       -4.6082858107  MEMB      79              0.0000000000
     11335       107  DOPC      H12R           22.4038599370       -9.6027828900       -3.9204548931  MEMB      79              0.0000000000
     11336       107  DOPC      H12S           21.2142460934       -9.3556698641       -5.1635659998  MEMB      79              0.0000000000
     11337       107  DOPC      C213           21.6649163458       -7.6827749131       -3.7252831989  MEMB      79              0.0000000000
     11338       107  DOPC      H13R           22.5308837394       -7.0192449631       -3.5151656236  MEMB      79              0.0000000000
     11339       107  DOPC      H13S           21.3427993523       -8.0578628937       -2.7303608103  MEMB      79              0.0000000000
     11340       107  DOPC      C214           20.5460583752       -6.7809199712       -4.2483410428  MEMB      79              0.0000000000
     11341       107  DOPC      H14R           19.6829023383       -7.4066977244       -4.5608865389  MEMB      79              0.0000000000
     11342       107  DOPC      H14S           20.8923956649       -6.3184794932       -5.1972985795  MEMB      79              0.0000000000
     11343       107  DOPC      C215           20.0388106757       -5.7944955061       -3.2607205476  MEMB      79              0.0000000000
     11344       107  DOPC      H15R           20.8871174515       -5.1662761818       -2.9142569675  MEMB      79              0.0000000000
     11345       107  DOPC      H15S           19.8708095547       -6.3260580430       -2.2997112594  MEMB      79              0.0000000000
     11346       107  DOPC      C216           18.7482164955       -4.9978039519       -3.6859486687  MEMB      79              0.0000000000
     11347       107  DOPC      H16R           18.0668822961       -5.7955645289       -4.0515749511  MEMB      79              0.0000000000
     11348       107  DOPC      H16S           19.0925201742       -4.3642406463       -4.5311549382  MEMB      79              0.0000000000
     11349       107  DOPC      C217           18.0998482343       -4.2092776043       -2.4713832748  MEMB      79              0.0000000000
     11350       107  DOPC      H17R           17.4152813069       -4.7659014950       -1.7962091741  MEMB      79              0.0000000000
     11351       107  DOPC      H17S           17.4373485239       -3.4275794595       -2.9007594121  MEMB      79              0.0000000000
     11352       107  DOPC      C218           18.9562991300       -3.4404164891       -1.4681977842  MEMB      79              0.0000000000
     11353       107  DOPC      H18R           19.5478518911       -4.2027735874       -0.9175642784  MEMB      79              0.0000000000
     11354       107  DOPC      H18S           18.2828157009       -2.9297803657       -0.7470949263  MEMB      79              0.0000000000
     11355       107  DOPC      H18T           19.6838680703       -2.8517639883       -2.0669083697  MEMB      79              0.0000000000
     11356       107  DOPC      C33            19.5418784542       -6.0039664005      -10.6467600277  MEMB      79              0.0000000000
     11357       107  DOPC      H3X            18.7884597117       -5.9856153234      -11.4630593012  MEMB      79              0.0000000000
     11358       107  DOPC      H3Y            19.1053032606       -5.7128472658       -9.6674887963  MEMB      79              0.0000000000
     11359       107  DOPC      C34            19.8981586565       -7.5100205164      -10.3104348521  MEMB      79              0.0000000000
     11360       107  DOPC      H4X            20.8234454856       -7.7474597533       -9.7431713262  MEMB      79              0.0000000000
     11361       107  DOPC      H4Y            20.2589993653       -7.9090318786      -11.2824972142  MEMB      79              0.0000000000
     11362       107  DOPC      C35            18.7196430563       -8.2318138718       -9.9137066353  MEMB      79              0.0000000000
     11363       107  DOPC      H5X            18.6867924684       -9.3055537061      -10.1971218255  MEMB      79              0.0000000000
     11364       107  DOPC      H5Y            17.7799496717       -7.7942013663      -10.3134463922  MEMB      79              0.0000000000
     11365       107  DOPC      C36            18.5752445717       -8.1788362356       -8.4340357235  MEMB      79              0.0000000000
     11366       107  DOPC      H6X            19.4781870248       -8.3664164668       -7.8144961101  MEMB      79              0.0000000000
     11367       107  DOPC      H6Y            18.3799383741       -7.1185231895       -8.1658704794  MEMB      79              0.0000000000
     11368       107  DOPC      C37            17.4332734008       -8.9838985885       -7.8901522311  MEMB      79              0.0000000000
     11369       107  DOPC      H7X            17.3525883302       -8.5123850997       -6.8874134232  MEMB      79              0.0000000000
     11370       107  DOPC      H7Y            16.4978348188       -8.9454680101       -8.4883149831  MEMB      79              0.0000000000
     11371       107  DOPC      C38            17.7349000919      -10.4887559992       -7.6441900205  MEMB      79              0.0000000000
     11372       107  DOPC      H8X            18.1213106073      -10.9862269825       -8.5593571480  MEMB      79              0.0000000000
     11373       107  DOPC      H8Y            16.7863008306      -10.9741109050       -7.3296882173  MEMB      79              0.0000000000
     11374       107  DOPC      C39            18.7711935847      -10.7020143518       -6.5918441384  MEMB      79              0.0000000000
     11375       107  DOPC      H9X            19.8092905310      -10.8001851069       -6.9421541257  MEMB      79              0.0000000000
     11376       107  DOPC      C310           18.5371226100      -10.8452697489       -5.3149351679  MEMB      79              0.0000000000
     11377       107  DOPC      H10X           19.3865667951      -11.0020921776       -4.6338685853  MEMB      79              0.0000000000
     11378       107  DOPC      C311           17.2004807239      -10.7787104503       -4.6835055107  MEMB      79              0.0000000000
     11379       107  DOPC      H11X           17.0342372802      -11.6561717719       -4.0226382313  MEMB      79              0.0000000000
     11380       107  DOPC      H11Y           16.3488002836      -10.4729199900       -5.3280623502  MEMB      79              0.0000000000
     11381       107  DOPC      C312           17.2528358885       -9.6227763126       -3.6427946415  MEMB      79              0.0000000000
     11382       107  DOPC      H12X           16.2915738593       -9.6490115409       -3.0863699450  MEMB      79              0.0000000000
     11383       107  DOPC      H12Y           17.4728304706       -8.6712136522       -4.1723721962  MEMB      79              0.0000000000
     11384       107  DOPC      C313           18.2430925232       -9.6644502983       -2.5043225284  MEMB      79              0.0000000000
     11385       107  DOPC      H13X           18.3059636824      -10.6391229727       -1.9748119377  MEMB      79              0.0000000000
     11386       107  DOPC      H13Y           19.1658872780       -9.4171629718       -3.0714375015  MEMB      79              0.0000000000
     11387       107  DOPC      C314           17.9616974557       -8.5815626008       -1.4525664454  MEMB      79              0.0000000000
     11388       107  DOPC      H14X           18.0960104627       -7.5625472849       -1.8743352087  MEMB      79              0.0000000000
     11389       107  DOPC      H14Y           16.8997633446       -8.7461919121       -1.1705839413  MEMB      79              0.0000000000
     11390       107  DOPC      C315           18.7372765139       -8.7022021426       -0.0813178266  MEMB      79              0.0000000000
     11391       107  DOPC      H15X           19.8409378601       -8.5752188207       -0.0926356312  MEMB      79              0.0000000000
     11392       107  DOPC      H15Y           18.4792073589       -9.6998437919        0.3339314504  MEMB      79              0.0000000000
     11393       107  DOPC      C316           18.1409417749       -7.7235482459        1.0193632379  MEMB      79              0.0000000000
     11394       107  DOPC      H16X           17.0515328944       -7.9062093889        1.1382923383  MEMB      79              0.0000000000
     11395       107  DOPC      H16Y           18.7171161958       -7.8918963041        1.9542442399  MEMB      79              0.0000000000
     11396       107  DOPC      C317           18.4440806404       -6.1788883912        0.7494831839  MEMB      79              0.0000000000
     11397       107  DOPC      H17X           19.5209379677       -6.0810955691        0.4942653347  MEMB      79              0.0000000000
     11398       107  DOPC      H17Y           17.8760236135       -5.8267663824       -0.1380100085  MEMB      79              0.0000000000
     11399       107  DOPC      C318           18.0568851818       -5.2615466904        1.9210715161  MEMB      79              0.0000000000
     11400       107  DOPC      H18X           16.9741693566       -5.2929148471        2.1681813893  MEMB      79              0.0000000000
     11401       107  DOPC      H18Y           18.6473108310       -5.4670271489        2.8394917583  MEMB      79              0.0000000000
     11402       107  DOPC      H18Z           18.2719337003       -4.2291839840        1.5713537097  MEMB      79              0.0000000000
     11403       108  DOPC      N             -19.7060123109       -2.0150319861      -17.8397928309  MEMB      80              0.0000000000
     11404       108  DOPC      C12           -21.1625504150       -2.4087444873      -17.8454228639  MEMB      80              0.0000000000
     11405       108  DOPC      H12A          -21.7184412378       -1.7178045390      -17.2289917267  MEMB      80              0.0000000000
     11406       108  DOPC      H12B          -21.0883864020       -3.3851454183      -17.3898561833  MEMB      80              0.0000000000
     11407       108  DOPC      C13           -19.4182907705       -0.7817754816      -18.5389229752  MEMB      80              0.0000000000
     11408       108  DOPC      H13A          -19.7829113832        0.0261080561      -17.9218524623  MEMB      80              0.0000000000
     11409       108  DOPC      H13B          -18.3688039307       -0.7447799677      -18.7911305226  MEMB      80              0.0000000000
     11410       108  DOPC      H13C          -20.0183048001       -0.7475501867      -19.4362588294  MEMB      80              0.0000000000
     11411       108  DOPC      C14           -18.8907734064       -3.2572106982      -18.4466090890  MEMB      80              0.0000000000
     11412       108  DOPC      H14A          -17.8461100257       -3.1901595981      -18.1809350535  MEMB      80              0.0000000000
     11413       108  DOPC      H14B          -19.2266035224       -4.0803344234      -17.8333511290  MEMB      80              0.0000000000
     11414       108  DOPC      H14C          -19.2338666869       -3.5718060711      -19.4211431791  MEMB      80              0.0000000000
     11415       108  DOPC      C15           -19.3507369317       -1.8399145352      -16.3974267098  MEMB      80              0.0000000000
     11416       108  DOPC      H15A          -18.3568759301       -1.4937268552      -16.1549511215  MEMB      80              0.0000000000
     11417       108  DOPC      H15B          -19.4871947855       -2.7358563771      -15.8100024337  MEMB      80              0.0000000000
     11418       108  DOPC      H15C          -20.0234617119       -1.0996349108      -15.9902075879  MEMB      80              0.0000000000
     11419       108  DOPC      C11           -21.9122205570       -2.6040054168      -19.1994024775  MEMB      80              0.0000000000
     11420       108  DOPC      H11A          -22.9805833776       -2.8489113046      -19.0179004479  MEMB      80              0.0000000000
     11421       108  DOPC      H11B          -22.0107101573       -1.6093862770      -19.6845349742  MEMB      80              0.0000000000
     11422       108  DOPC      P             -21.8501469050       -4.9873095181      -20.2124319194  MEMB      80              0.0000000000
     11423       108  DOPC      O13           -20.6254566711       -5.8222837633      -20.3804139017  MEMB      80              0.0000000000
     11424       108  DOPC      O14           -22.8931648060       -5.0989884630      -21.2614045182  MEMB      80              0.0000000000
     11425       108  DOPC      O12           -21.3213205232       -3.5000659752      -20.0810207672  MEMB      80              0.0000000000
     11426       108  DOPC      O11           -22.6207266007       -5.2465758112      -18.7971519740  MEMB      80              0.0000000000
     11427       108  DOPC      C1            -23.8593916644       -5.9461138032      -18.6372492543  MEMB      80              0.0000000000
     11428       108  DOPC      HA            -23.7881369569       -7.0241004168      -18.8964564328  MEMB      80              0.0000000000
     11429       108  DOPC      HB            -24.6806789349       -5.5925740858      -19.2966563675  MEMB      80              0.0000000000
     11430       108  DOPC      C2            -24.4210726514       -6.0186934485      -17.2156096315  MEMB      80              0.0000000000
     11431       108  DOPC      HS            -25.4187030551       -6.4975265150      -17.3144724070  MEMB      80              0.0000000000
     11432       108  DOPC      O21           -24.4454523094       -4.7473723672      -16.4958379713  MEMB      80              0.0000000000
     11433       108  DOPC      C21           -25.3114876103       -3.8101171231      -16.9291125831  MEMB      80              0.0000000000
     11434       108  DOPC      O22           -26.0838279560       -3.9331144308      -17.8167286097  MEMB      80              0.0000000000
     11435       108  DOPC      C22           -25.0249352967       -2.4618037883      -16.2999519774  MEMB      80              0.0000000000
     11436       108  DOPC      H2R           -25.3804561539       -1.6355021177      -16.9519883876  MEMB      80              0.0000000000
     11437       108  DOPC      H2S           -23.9521210438       -2.2866949558      -16.0703275451  MEMB      80              0.0000000000
     11438       108  DOPC      C3            -23.6753070252       -6.9383465890      -16.2466068561  MEMB      80              0.0000000000
     11439       108  DOPC      HX            -23.6461273988       -8.0130546042      -16.5267357336  MEMB      80              0.0000000000
     11440       108  DOPC      HY            -24.1923750074       -6.8227226567      -15.2700858092  MEMB      80              0.0000000000
     11441       108  DOPC      O31           -22.3156820373       -6.5911125415      -16.1142315442  MEMB      80              0.0000000000
     11442       108  DOPC      C31           -21.5632050722       -7.4608768801      -15.4780834143  MEMB      80              0.0000000000
     11443       108  DOPC      O32           -21.9619393534       -8.5369060306      -15.0146821877  MEMB      80              0.0000000000
     11444       108  DOPC      C32           -20.0842790846       -6.8913914110      -15.2912154970  MEMB      80              0.0000000000
     11445       108  DOPC      H2X           -19.7124213148       -7.1791922275      -14.2846308165  MEMB      80              0.0000000000
     11446       108  DOPC      H2Y           -19.3937603079       -7.3526350674      -16.0292935418  MEMB      80              0.0000000000
     11447       108  DOPC      C23           -25.9505769821       -2.1642382078      -15.0710216087  MEMB      80              0.0000000000
     11448       108  DOPC      H3R           -27.0289834982       -2.3680446333      -15.2437156259  MEMB      80              0.0000000000
     11449       108  DOPC      H3S           -25.9200131322       -1.1125245526      -14.7142515741  MEMB      80              0.0000000000
     11450       108  DOPC      C24           -25.4407325912       -2.9418553941      -13.8465026780  MEMB      80              0.0000000000
     11451       108  DOPC      H4R           -24.4035461313       -2.6121672097      -13.6231845347  MEMB      80              0.0000000000
     11452       108  DOPC      H4S           -25.5487514365       -3.9975597191      -14.1753504728  MEMB      80              0.0000000000
     11453       108  DOPC      C25           -26.1966535593       -2.7331952480      -12.5259062120  MEMB      80              0.0000000000
     11454       108  DOPC      H5R           -27.2522249587       -2.8943320213      -12.8327039727  MEMB      80              0.0000000000
     11455       108  DOPC      H5S           -26.1832937634       -1.6928144893      -12.1363547773  MEMB      80              0.0000000000
     11456       108  DOPC      C26           -25.9950151649       -3.6863341926      -11.3761857845  MEMB      80              0.0000000000
     11457       108  DOPC      H6R           -26.0977798676       -4.7140123156      -11.7856220458  MEMB      80              0.0000000000
     11458       108  DOPC      H6S           -26.7481900706       -3.7745586589      -10.5642336040  MEMB      80              0.0000000000
     11459       108  DOPC      C27           -24.6491820787       -3.5011197910      -10.6692936289  MEMB      80              0.0000000000
     11460       108  DOPC      H7R           -24.7513803164       -2.5978910449      -10.0305018652  MEMB      80              0.0000000000
     11461       108  DOPC      H7S           -23.7837848948       -3.3863320950      -11.3564856030  MEMB      80              0.0000000000
     11462       108  DOPC      C28           -24.3644650323       -4.6992300235       -9.6828622736  MEMB      80              0.0000000000
     11463       108  DOPC      H8R           -24.1049324624       -5.5619988727      -10.3329348037  MEMB      80              0.0000000000
     11464       108  DOPC      H8S           -25.2027960050       -5.0529094074       -9.0453416652  MEMB      80              0.0000000000
     11465       108  DOPC      C29           -23.1090721305       -4.3650177463       -8.9093285926  MEMB      80              0.0000000000
     11466       108  DOPC      H9R           -22.2060107972       -4.3175251066       -9.5356070365  MEMB      80              0.0000000000
     11467       108  DOPC      C210          -23.0143958947       -4.2970840583       -7.5080279599  MEMB      80              0.0000000000
     11468       108  DOPC      H10R          -22.0613162598       -4.0702260349       -7.0078529841  MEMB      80              0.0000000000
     11469       108  DOPC      C211          -24.1359107194       -4.5176758945       -6.5825629140  MEMB      80              0.0000000000
     11470       108  DOPC      H11R          -25.1208981753       -4.4659270648       -7.0938780174  MEMB      80              0.0000000000
     11471       108  DOPC      H11S          -24.1186180015       -3.7198933693       -5.8095399075  MEMB      80              0.0000000000
     11472       108  DOPC      C212          -24.0901061781       -5.8335848423       -5.8341183013  MEMB      80              0.0000000000
     11473       108  DOPC      H12R          -23.9840953589       -6.6521040788       -6.5778312582  MEMB      80              0.0000000000
     11474       108  DOPC      H12S          -24.9816129416       -5.9213471041       -5.1769774443  MEMB      80              0.0000000000
     11475       108  DOPC      C213          -23.0121173044       -6.0182054420       -4.8277581515  MEMB      80              0.0000000000
     11476       108  DOPC      H13R          -22.9547724622       -5.1967128033       -4.0819816742  MEMB      80              0.0000000000
     11477       108  DOPC      H13S          -22.0239706845       -5.8652876157       -5.3120134201  MEMB      80              0.0000000000
     11478       108  DOPC      C214          -23.0312240621       -7.3459946056       -4.0425495013  MEMB      80              0.0000000000
     11479       108  DOPC      H14R          -23.0990712097       -8.2482571421       -4.6872512139  MEMB      80              0.0000000000
     11480       108  DOPC      H14S          -24.0218403308       -7.2563895556       -3.5476032302  MEMB      80              0.0000000000
     11481       108  DOPC      C215          -21.8951787614       -7.4688138813       -2.9970246079  MEMB      80              0.0000000000
     11482       108  DOPC      H15R          -22.3785268748       -8.1291964432       -2.2456330132  MEMB      80              0.0000000000
     11483       108  DOPC      H15S          -21.6344635411       -6.5373926961       -2.4503957980  MEMB      80              0.0000000000
     11484       108  DOPC      C216          -20.6318648209       -8.1831519762       -3.5503770892  MEMB      80              0.0000000000
     11485       108  DOPC      H16R          -20.3838211162       -7.7582272660       -4.5464867473  MEMB      80              0.0000000000
     11486       108  DOPC      H16S          -20.8975094734       -9.2284501933       -3.8170332596  MEMB      80              0.0000000000
     11487       108  DOPC      C217          -19.4427414554       -7.9794510383       -2.6637453562  MEMB      80              0.0000000000
     11488       108  DOPC      H17R          -19.1850543629       -6.9058654368       -2.5399219236  MEMB      80              0.0000000000
     11489       108  DOPC      H17S          -18.5780837105       -8.4678741603       -3.1618736434  MEMB      80              0.0000000000
     11490       108  DOPC      C218          -19.6305041304       -8.6626142428       -1.3311214406  MEMB      80              0.0000000000
     11491       108  DOPC      H18R          -18.8072265721       -8.4016739658       -0.6322329972  MEMB      80              0.0000000000
     11492       108  DOPC      H18S          -19.8671767381       -9.7374477155       -1.4829101778  MEMB      80              0.0000000000
     11493       108  DOPC      H18T          -20.5394639977       -8.2216716353       -0.8688643943  MEMB      80              0.0000000000
     11494       108  DOPC      C33           -20.0232815061       -5.4218784919      -15.4864242938  MEMB      80              0.0000000000
     11495       108  DOPC      H3X           -20.6313573608       -5.1876083956      -16.3862478186  MEMB      80              0.0000000000
     11496       108  DOPC      H3Y           -18.9309177654       -5.2597931904      -15.6080427003  MEMB      80              0.0000000000
     11497       108  DOPC      C34           -20.7069295463       -4.7330388310      -14.2847285265  MEMB      80              0.0000000000
     11498       108  DOPC      H4X           -21.8066586293       -4.8826822199      -14.2344904036  MEMB      80              0.0000000000
     11499       108  DOPC      H4Y           -20.8321376586       -3.6522822747      -14.5096933665  MEMB      80              0.0000000000
     11500       108  DOPC      C35           -20.1017457380       -4.8769895572      -12.9101119427  MEMB      80              0.0000000000
     11501       108  DOPC      H5X           -18.9944825136       -4.8542341064      -12.9982684054  MEMB      80              0.0000000000
     11502       108  DOPC      H5Y           -20.2588959373       -5.8975289330      -12.5000823948  MEMB      80              0.0000000000
     11503       108  DOPC      C36           -20.6531087698       -4.0232414337      -11.7641082500  MEMB      80              0.0000000000
     11504       108  DOPC      H6X           -21.6734089672       -4.3231254845      -11.4425836324  MEMB      80              0.0000000000
     11505       108  DOPC      H6Y           -19.9041841502       -4.0698090781      -10.9448014707  MEMB      80              0.0000000000
     11506       108  DOPC      C37           -20.6756147711       -2.5303735099      -11.9875488000  MEMB      80              0.0000000000
     11507       108  DOPC      H7X           -19.7919147297       -2.2828642143      -12.6137551201  MEMB      80              0.0000000000
     11508       108  DOPC      H7Y           -21.6046170841       -2.3148396748      -12.5574793350  MEMB      80              0.0000000000
     11509       108  DOPC      C38           -20.4748224255       -1.6482953499      -10.7407448649  MEMB      80              0.0000000000
     11510       108  DOPC      H8X           -20.2314438947       -0.6470375363      -11.1561608269  MEMB      80              0.0000000000
     11511       108  DOPC      H8Y           -19.6764707306       -2.0604252291      -10.0872127080  MEMB      80              0.0000000000
     11512       108  DOPC      C39           -21.6870518291       -1.4757485389       -9.8115674055  MEMB      80              0.0000000000
     11513       108  DOPC      H9X           -22.6032699968       -1.8012185625      -10.3259736023  MEMB      80              0.0000000000
     11514       108  DOPC      C310          -21.7244041045       -1.1821997237       -8.4731173872  MEMB      80              0.0000000000
     11515       108  DOPC      H10X          -22.7312894033       -1.0090314895       -8.0654474668  MEMB      80              0.0000000000
     11516       108  DOPC      C311          -20.5007613993       -0.8813834543       -7.5646549599  MEMB      80              0.0000000000
     11517       108  DOPC      H11X          -20.6742082574        0.0652617467       -7.0095870777  MEMB      80              0.0000000000
     11518       108  DOPC      H11Y          -19.5782054251       -0.7705802182       -8.1736983953  MEMB      80              0.0000000000
     11519       108  DOPC      C312          -20.1520427994       -1.8403915837       -6.3940762274  MEMB      80              0.0000000000
     11520       108  DOPC      H12X          -19.9527384025       -2.8079259868       -6.9024817472  MEMB      80              0.0000000000
     11521       108  DOPC      H12Y          -20.9653755743       -2.1506557076       -5.7037525463  MEMB      80              0.0000000000
     11522       108  DOPC      C313          -18.8169538150       -1.4104130117       -5.7625414887  MEMB      80              0.0000000000
     11523       108  DOPC      H13X          -18.2404928836       -0.9968429108       -6.6175107096  MEMB      80              0.0000000000
     11524       108  DOPC      H13Y          -18.8715908635       -0.5432467327       -5.0701839029  MEMB      80              0.0000000000
     11525       108  DOPC      C314          -17.8772916148       -2.5987931743       -5.3129162263  MEMB      80              0.0000000000
     11526       108  DOPC      H14X          -17.8608564936       -3.2119310220       -6.2392592510  MEMB      80              0.0000000000
     11527       108  DOPC      H14Y          -16.8988632580       -2.2641056450       -4.9067335080  MEMB      80              0.0000000000
     11528       108  DOPC      C315          -18.5161287243       -3.4198422318       -4.1560813395  MEMB      80              0.0000000000
     11529       108  DOPC      H15X          -17.7106880751       -4.1279544294       -3.8659727925  MEMB      80              0.0000000000
     11530       108  DOPC      H15Y          -19.3866121249       -4.0078036470       -4.5178570733  MEMB      80              0.0000000000
     11531       108  DOPC      C316          -19.0578188044       -2.6551687349       -2.8996502977  MEMB      80              0.0000000000
     11532       108  DOPC      H16X          -18.3253508638       -1.9726888650       -2.4179527398  MEMB      80              0.0000000000
     11533       108  DOPC      H16Y          -19.8327455735       -1.9810847425       -3.3232307995  MEMB      80              0.0000000000
     11534       108  DOPC      C317          -19.6683577864       -3.5287411097       -1.8061972693  MEMB      80              0.0000000000
     11535       108  DOPC      H17X          -20.3058894180       -2.9585362058       -1.0971563221  MEMB      80              0.0000000000
     11536       108  DOPC      H17Y          -20.2891564168       -4.3346982677       -2.2526985547  MEMB      80              0.0000000000
     11537       108  DOPC      C318          -18.6193344999       -4.2339218511       -0.9556719778  MEMB      80              0.0000000000
     11538       108  DOPC      H18X          -17.7877022946       -3.5159299523       -0.7907578348  MEMB      80              0.0000000000
     11539       108  DOPC      H18Y          -19.1873548472       -4.4969302515       -0.0377938599  MEMB      80              0.0000000000
     11540       108  DOPC      H18Z          -18.1646578405       -5.1215356397       -1.4452964460  MEMB      80              0.0000000000
     11541       109  DOPC      N             -12.1304050337      -17.7868517344      -20.8881616391  MEMB      81              0.0000000000
     11542       109  DOPC      C12           -12.7308525322      -16.3512829738      -20.8335022544  MEMB      81              0.0000000000
     11543       109  DOPC      H12A          -13.7493952523      -16.4379181607      -21.1820207481  MEMB      81              0.0000000000
     11544       109  DOPC      H12B          -12.3638767904      -15.7584196835      -21.6582701257  MEMB      81              0.0000000000
     11545       109  DOPC      C13           -12.0936747030      -18.2215727411      -22.3338368249  MEMB      81              0.0000000000
     11546       109  DOPC      H13A          -13.1322098541      -18.3360408381      -22.6072260168  MEMB      81              0.0000000000
     11547       109  DOPC      H13B          -11.7334336044      -17.4334142757      -22.9783773765  MEMB      81              0.0000000000
     11548       109  DOPC      H13C          -11.5081364722      -19.1279539496      -22.2889147292  MEMB      81              0.0000000000
     11549       109  DOPC      C14           -12.9850777645      -18.7949770095      -20.1939403362  MEMB      81              0.0000000000
     11550       109  DOPC      H14A          -12.4386924680      -19.7260568733      -20.1630650106  MEMB      81              0.0000000000
     11551       109  DOPC      H14B          -12.9070561902      -18.6560493104      -19.1257588139  MEMB      81              0.0000000000
     11552       109  DOPC      H14C          -14.0165808932      -18.7585361443      -20.5118604407  MEMB      81              0.0000000000
     11553       109  DOPC      C15           -10.7547363806      -17.7778978745      -20.2849634579  MEMB      81              0.0000000000
     11554       109  DOPC      H15A          -10.3465966657      -18.7756958530      -20.3499321275  MEMB      81              0.0000000000
     11555       109  DOPC      H15B          -10.7301414226      -17.5539921787      -19.2287147398  MEMB      81              0.0000000000
     11556       109  DOPC      H15C          -10.1597937543      -17.0316586500      -20.7905030049  MEMB      81              0.0000000000
     11557       109  DOPC      C11           -12.6399195979      -15.6102140041      -19.5035367137  MEMB      81              0.0000000000
     11558       109  DOPC      H11A          -11.5808989591      -15.3311896042      -19.3166097039  MEMB      81              0.0000000000
     11559       109  DOPC      H11B          -13.1580169743      -14.6297994239      -19.5719712116  MEMB      81              0.0000000000
     11560       109  DOPC      P             -13.0321534374      -15.9571608953      -16.9882629599  MEMB      81              0.0000000000
     11561       109  DOPC      O13           -13.6607066339      -14.5846318648      -16.7834446110  MEMB      81              0.0000000000
     11562       109  DOPC      O14           -11.6239536438      -16.1729523002      -16.5946158749  MEMB      81              0.0000000000
     11563       109  DOPC      O12           -13.2664694324      -16.3751544750      -18.4288376924  MEMB      81              0.0000000000
     11564       109  DOPC      O11           -13.9375412487      -17.0176073627      -16.1668976361  MEMB      81              0.0000000000
     11565       109  DOPC      C1            -13.6362181006      -18.3860182887      -16.4243908758  MEMB      81              0.0000000000
     11566       109  DOPC      HA            -12.6204237728      -18.6362037454      -16.7984098427  MEMB      81              0.0000000000
     11567       109  DOPC      HB            -14.3286056004      -18.8071956837      -17.1843449562  MEMB      81              0.0000000000
     11568       109  DOPC      C2            -13.8720276696      -19.2774023139      -15.1459866264  MEMB      81              0.0000000000
     11569       109  DOPC      HS            -13.9302851487      -20.3299047241      -15.4969367785  MEMB      81              0.0000000000
     11570       109  DOPC      O21           -15.2127506538      -18.9065921409      -14.7057144430  MEMB      81              0.0000000000
     11571       109  DOPC      C21           -15.7610319983      -19.7901254618      -13.8310642453  MEMB      81              0.0000000000
     11572       109  DOPC      O22           -15.3022061701      -20.8451798557      -13.5310342654  MEMB      81              0.0000000000
     11573       109  DOPC      C22           -17.0376209561      -19.1458147978      -13.2616869911  MEMB      81              0.0000000000
     11574       109  DOPC      H2R           -17.9274031484      -19.6992571381      -13.6308884690  MEMB      81              0.0000000000
     11575       109  DOPC      H2S           -17.0918804850      -18.0525157639      -13.4516182787  MEMB      81              0.0000000000
     11576       109  DOPC      C3            -12.7386073621      -19.1145462257      -13.9640745841  MEMB      81              0.0000000000
     11577       109  DOPC      HX            -11.6884724178      -19.3835732252      -14.2073071836  MEMB      81              0.0000000000
     11578       109  DOPC      HY            -13.0893428305      -19.8047534977      -13.1672560102  MEMB      81              0.0000000000
     11579       109  DOPC      O31           -12.6175174814      -17.6895892495      -13.7068787114  MEMB      81              0.0000000000
     11580       109  DOPC      C31           -13.2568960838      -17.1751549720      -12.7855425672  MEMB      81              0.0000000000
     11581       109  DOPC      O32           -13.9332913065      -17.7371671053      -11.8946979720  MEMB      81              0.0000000000
     11582       109  DOPC      C32           -12.9850042103      -15.6184628859      -12.8608857957  MEMB      81              0.0000000000
     11583       109  DOPC      H2X           -12.0826912717      -15.3980416370      -13.4704484055  MEMB      81              0.0000000000
     11584       109  DOPC      H2Y           -13.8620448329      -15.2333543870      -13.4237463361  MEMB      81              0.0000000000
     11585       109  DOPC      C23           -16.9819479736      -19.3879223859      -11.7011524158  MEMB      81              0.0000000000
     11586       109  DOPC      H3R           -16.1343403653      -18.7712347341      -11.3329423138  MEMB      81              0.0000000000
     11587       109  DOPC      H3S           -16.7372622281      -20.4309443497      -11.4069502503  MEMB      81              0.0000000000
     11588       109  DOPC      C24           -18.2670695809      -18.9147761033      -11.0022002697  MEMB      81              0.0000000000
     11589       109  DOPC      H4R           -18.0195174424      -19.1870318683       -9.9539084833  MEMB      81              0.0000000000
     11590       109  DOPC      H4S           -19.1359578132      -19.4979592658      -11.3753641896  MEMB      81              0.0000000000
     11591       109  DOPC      C25           -18.7450817801      -17.4638208337      -11.2679872455  MEMB      81              0.0000000000
     11592       109  DOPC      H5R           -19.6766362078      -17.2822189003      -10.6904504825  MEMB      81              0.0000000000
     11593       109  DOPC      H5S           -19.0587301675      -17.3069785030      -12.3221911166  MEMB      81              0.0000000000
     11594       109  DOPC      C26           -17.6330863137      -16.4475899735      -10.9681912868  MEMB      81              0.0000000000
     11595       109  DOPC      H6R           -18.0674279608      -15.4844024546      -11.3116124419  MEMB      81              0.0000000000
     11596       109  DOPC      H6S           -16.6686606351      -16.6343414231      -11.4871603295  MEMB      81              0.0000000000
     11597       109  DOPC      C27           -17.3012010280      -16.4333241447       -9.4979331519  MEMB      81              0.0000000000
     11598       109  DOPC      H7R           -16.9731198908      -17.4129817639       -9.0893317212  MEMB      81              0.0000000000
     11599       109  DOPC      H7S           -18.2499490931      -16.1860000136       -8.9754109140  MEMB      81              0.0000000000
     11600       109  DOPC      C28           -16.0383304091      -15.6310398733       -9.2113451895  MEMB      81              0.0000000000
     11601       109  DOPC      H8R           -15.3852811137      -15.7951034296      -10.0950477051  MEMB      81              0.0000000000
     11602       109  DOPC      H8S           -15.5313146005      -16.1332278393       -8.3598386711  MEMB      81              0.0000000000
     11603       109  DOPC      C29           -16.4513968838      -14.2062610751       -9.0137011789  MEMB      81              0.0000000000
     11604       109  DOPC      H9R           -17.1195108890      -13.7329276018       -9.7482623938  MEMB      81              0.0000000000
     11605       109  DOPC      C210          -15.9633997736      -13.2032097895       -8.1360876464  MEMB      81              0.0000000000
     11606       109  DOPC      H10R          -16.4054910591      -12.1998003954       -8.2239777065  MEMB      81              0.0000000000
     11607       109  DOPC      C211          -14.7718404159      -13.3386943177       -7.1441776247  MEMB      81              0.0000000000
     11608       109  DOPC      H11R          -14.0503035139      -12.5314683579       -7.3933588669  MEMB      81              0.0000000000
     11609       109  DOPC      H11S          -14.1793404859      -14.2653513634       -7.3009302787  MEMB      81              0.0000000000
     11610       109  DOPC      C212          -15.2067405109      -13.2078108243       -5.6769076542  MEMB      81              0.0000000000
     11611       109  DOPC      H12R          -15.8588892610      -12.3287360717       -5.4865132763  MEMB      81              0.0000000000
     11612       109  DOPC      H12S          -14.2868626775      -13.0964608082       -5.0639258113  MEMB      81              0.0000000000
     11613       109  DOPC      C213          -15.9073409281      -14.4473415941       -5.0270411053  MEMB      81              0.0000000000
     11614       109  DOPC      H13R          -16.7491123128      -14.7510354069       -5.6854576813  MEMB      81              0.0000000000
     11615       109  DOPC      H13S          -16.5097958311      -14.1463321589       -4.1434336119  MEMB      81              0.0000000000
     11616       109  DOPC      C214          -14.9629107733      -15.6965224463       -4.5731762776  MEMB      81              0.0000000000
     11617       109  DOPC      H14R          -14.3978547298      -16.0835638028       -5.4479514895  MEMB      81              0.0000000000
     11618       109  DOPC      H14S          -15.6363518279      -16.4231642854       -4.0703938381  MEMB      81              0.0000000000
     11619       109  DOPC      C215          -13.8671263362      -15.2495582485       -3.6059921407  MEMB      81              0.0000000000
     11620       109  DOPC      H15R          -14.3708547617      -14.7669482915       -2.7413154478  MEMB      81              0.0000000000
     11621       109  DOPC      H15S          -13.1697456271      -14.5418489565       -4.1031128413  MEMB      81              0.0000000000
     11622       109  DOPC      C216          -12.9615440541      -16.3757485337       -2.9789234754  MEMB      81              0.0000000000
     11623       109  DOPC      H16R          -12.2230293861      -15.8628121795       -2.3263800284  MEMB      81              0.0000000000
     11624       109  DOPC      H16S          -12.4736262663      -16.9635639495       -3.7856024637  MEMB      81              0.0000000000
     11625       109  DOPC      C217          -13.6504192295      -17.4025099423       -2.1259968562  MEMB      81              0.0000000000
     11626       109  DOPC      H17R          -12.9372591236      -18.1833596578       -1.7854123365  MEMB      81              0.0000000000
     11627       109  DOPC      H17S          -14.3272794967      -17.9791215302       -2.7921044214  MEMB      81              0.0000000000
     11628       109  DOPC      C218          -14.3444251148      -16.7989807632       -0.9075890366  MEMB      81              0.0000000000
     11629       109  DOPC      H18R          -13.5107665946      -16.3072039399       -0.3621636831  MEMB      81              0.0000000000
     11630       109  DOPC      H18S          -14.9017190262      -17.5156344170       -0.2671586950  MEMB      81              0.0000000000
     11631       109  DOPC      H18T          -15.0257484305      -16.0475371251       -1.3608575410  MEMB      81              0.0000000000
     11632       109  DOPC      C33           -12.9279246049      -14.9037800143      -11.4982448694  MEMB      81              0.0000000000
     11633       109  DOPC      H3X           -13.8046085433      -15.2695222833      -10.9220687527  MEMB      81              0.0000000000
     11634       109  DOPC      H3Y           -13.2069301886      -13.8301497667      -11.5598462135  MEMB      81              0.0000000000
     11635       109  DOPC      C34           -11.5646581747      -15.0677088320      -10.8648316238  MEMB      81              0.0000000000
     11636       109  DOPC      H4X           -11.5284209521      -14.3391141435      -10.0268833735  MEMB      81              0.0000000000
     11637       109  DOPC      H4Y           -10.8986982068      -14.8986890082      -11.7379015824  MEMB      81              0.0000000000
     11638       109  DOPC      C35           -11.3818059015      -16.3139451076      -10.0381985488  MEMB      81              0.0000000000
     11639       109  DOPC      H5X           -10.3637246245      -16.2046088773       -9.6070637622  MEMB      81              0.0000000000
     11640       109  DOPC      H5Y           -11.3638826466      -17.2355604866      -10.6583802699  MEMB      81              0.0000000000
     11641       109  DOPC      C36           -12.4205375729      -16.4702067888       -8.9155167109  MEMB      81              0.0000000000
     11642       109  DOPC      H6X           -12.6443886602      -15.4618188589       -8.5064140892  MEMB      81              0.0000000000
     11643       109  DOPC      H6Y           -13.3893447996      -16.8134100757       -9.3373524844  MEMB      81              0.0000000000
     11644       109  DOPC      C37           -11.8243593591      -17.3690810882       -7.8442391179  MEMB      81              0.0000000000
     11645       109  DOPC      H7X           -10.7486081247      -17.1304543983       -7.7023319101  MEMB      81              0.0000000000
     11646       109  DOPC      H7Y           -12.3402379798      -17.3131038968       -6.8618660078  MEMB      81              0.0000000000
     11647       109  DOPC      C38           -11.7758368552      -18.8912115778       -8.1484731372  MEMB      81              0.0000000000
     11648       109  DOPC      H8X           -11.1802086567      -19.3758778083       -7.3455742015  MEMB      81              0.0000000000
     11649       109  DOPC      H8Y           -11.1247573006      -18.9995278450       -9.0421635762  MEMB      81              0.0000000000
     11650       109  DOPC      C39           -13.0816622719      -19.6101621848       -8.2314435616  MEMB      81              0.0000000000
     11651       109  DOPC      H9X           -13.3539700922      -19.9210931419       -9.2508401928  MEMB      81              0.0000000000
     11652       109  DOPC      C310          -13.8655682421      -19.9462974451       -7.2210252144  MEMB      81              0.0000000000
     11653       109  DOPC      H10X          -14.6404418613      -20.7009706121       -7.4211241389  MEMB      81              0.0000000000
     11654       109  DOPC      C311          -13.6408752431      -19.7078225056       -5.7657825379  MEMB      81              0.0000000000
     11655       109  DOPC      H11X          -14.5191007473      -20.0546087235       -5.1803090231  MEMB      81              0.0000000000
     11656       109  DOPC      H11Y          -13.5563505912      -18.6114517255       -5.6072025143  MEMB      81              0.0000000000
     11657       109  DOPC      C312          -12.4933843781      -20.4235393131       -5.0233274560  MEMB      81              0.0000000000
     11658       109  DOPC      H12X          -12.5699521661      -20.3721947932       -3.9161593233  MEMB      81              0.0000000000
     11659       109  DOPC      H12Y          -11.5907257510      -19.8272440430       -5.2762314441  MEMB      81              0.0000000000
     11660       109  DOPC      C313          -12.1631199517      -21.8995365608       -5.4220475086  MEMB      81              0.0000000000
     11661       109  DOPC      H13X          -11.9559732806      -21.9622489478       -6.5117622705  MEMB      81              0.0000000000
     11662       109  DOPC      H13Y          -11.2925030535      -22.2958025595       -4.8569626282  MEMB      81              0.0000000000
     11663       109  DOPC      C314          -13.3474380925      -22.8425755991       -5.1854879094  MEMB      81              0.0000000000
     11664       109  DOPC      H14X          -14.2653721396      -22.3659266546       -5.5911034736  MEMB      81              0.0000000000
     11665       109  DOPC      H14Y          -13.1417632268      -23.8056248773       -5.6998376462  MEMB      81              0.0000000000
     11666       109  DOPC      C315          -13.6799200676      -23.2084079302       -3.6762550075  MEMB      81              0.0000000000
     11667       109  DOPC      H15X          -13.4058941299      -22.4130154279       -2.9505955602  MEMB      81              0.0000000000
     11668       109  DOPC      H15Y          -13.3788927335      -24.2454054335       -3.4148369064  MEMB      81              0.0000000000
     11669       109  DOPC      C316          -15.2037723098      -23.3376671212       -3.3702106301  MEMB      81              0.0000000000
     11670       109  DOPC      H16X          -15.6720984072      -24.0442338717       -4.0883709647  MEMB      81              0.0000000000
     11671       109  DOPC      H16Y          -15.2858112361      -23.6707690318       -2.3135024272  MEMB      81              0.0000000000
     11672       109  DOPC      C317          -16.1674442879      -22.1361905847       -3.6192266989  MEMB      81              0.0000000000
     11673       109  DOPC      H17X          -16.0846859923      -21.7825952017       -4.6691984330  MEMB      81              0.0000000000
     11674       109  DOPC      H17Y          -17.2447566602      -22.4049373283       -3.5805648123  MEMB      81              0.0000000000
     11675       109  DOPC      C318          -15.8927734110      -20.9660398544       -2.6782452239  MEMB      81              0.0000000000
     11676       109  DOPC      H18X          -16.5268679893      -20.1187697343       -3.0164436742  MEMB      81              0.0000000000
     11677       109  DOPC      H18Y          -16.1504267715      -21.2315306049       -1.6306519362  MEMB      81              0.0000000000
     11678       109  DOPC      H18Z          -14.8054510530      -20.7548790848       -2.7646286121  MEMB      81              0.0000000000
     11679       110  DOPC      N              -9.6296690011       20.3259626188      -18.9633750031  MEMB      82              0.0000000000
     11680       110  DOPC      C12            -8.8220955209       19.5701581413      -17.9218836410  MEMB      82              0.0000000000
     11681       110  DOPC      H12A           -9.2055790193       19.7894298939      -16.9363583008  MEMB      82              0.0000000000
     11682       110  DOPC      H12B           -7.8249317712       19.9838586352      -17.9521561024  MEMB      82              0.0000000000
     11683       110  DOPC      C13           -11.1343833750       19.9957717075      -18.9225505185  MEMB      82              0.0000000000
     11684       110  DOPC      H13A          -11.2641027138       18.9558589958      -19.1836142613  MEMB      82              0.0000000000
     11685       110  DOPC      H13B          -11.5744182137       20.3095126423      -17.9874910103  MEMB      82              0.0000000000
     11686       110  DOPC      H13C          -11.5264098288       20.6136195499      -19.7168926605  MEMB      82              0.0000000000
     11687       110  DOPC      C14            -9.0670508883       20.0597407944      -20.3474161051  MEMB      82              0.0000000000
     11688       110  DOPC      H14A           -9.1740767027       19.0000741270      -20.5264470847  MEMB      82              0.0000000000
     11689       110  DOPC      H14B           -9.7189085776       20.6094428871      -21.0102199437  MEMB      82              0.0000000000
     11690       110  DOPC      H14C           -8.0236534694       20.3385185483      -20.3452283617  MEMB      82              0.0000000000
     11691       110  DOPC      C15            -9.4772697090       21.8069768678      -18.6206118581  MEMB      82              0.0000000000
     11692       110  DOPC      H15A          -10.1063232055       22.0642220124      -17.7812568662  MEMB      82              0.0000000000
     11693       110  DOPC      H15B           -9.7009926850       22.3845590783      -19.5053416161  MEMB      82              0.0000000000
     11694       110  DOPC      H15C           -8.4621064681       21.9178215406      -18.2691050704  MEMB      82              0.0000000000
     11695       110  DOPC      C11            -8.7224008781       18.0609273264      -18.0315663587  MEMB      82              0.0000000000
     11696       110  DOPC      H11A           -8.2062705483       17.6412462057      -17.1417357449  MEMB      82              0.0000000000
     11697       110  DOPC      H11B           -9.7257609065       17.5845484642      -18.0571107489  MEMB      82              0.0000000000
     11698       110  DOPC      P              -6.4868409169       17.4537423730      -19.2987688549  MEMB      82              0.0000000000
     11699       110  DOPC      O13            -5.9997461892       18.0267849682      -20.5521667482  MEMB      82              0.0000000000
     11700       110  DOPC      O14            -6.2294375877       16.0342072914      -19.0984219661  MEMB      82              0.0000000000
     11701       110  DOPC      O12            -8.0599134110       17.5934595686      -19.1909858161  MEMB      82              0.0000000000
     11702       110  DOPC      O11            -6.0838719527       18.3007667424      -18.0522531285  MEMB      82              0.0000000000
     11703       110  DOPC      C1             -4.7529283612       18.3991912360      -17.6771603859  MEMB      82              0.0000000000
     11704       110  DOPC      HA             -4.2134651650       18.9607502639      -18.4695945395  MEMB      82              0.0000000000
     11705       110  DOPC      HB             -4.3238049269       17.3905859951      -17.4958059520  MEMB      82              0.0000000000
     11706       110  DOPC      C2             -4.5961611081       19.2904086722      -16.4194456276  MEMB      82              0.0000000000
     11707       110  DOPC      HS             -3.5341244012       19.3803277378      -16.1058952223  MEMB      82              0.0000000000
     11708       110  DOPC      O21            -5.4305780281       18.7676569004      -15.4504579092  MEMB      82              0.0000000000
     11709       110  DOPC      C21            -4.8575695073       17.6926607201      -14.8352501583  MEMB      82              0.0000000000
     11710       110  DOPC      O22            -3.8116553877       17.2100061460      -15.0561945441  MEMB      82              0.0000000000
     11711       110  DOPC      C22            -5.8455342817       17.2309698517      -13.6586046512  MEMB      82              0.0000000000
     11712       110  DOPC      H2R            -5.8419284530       16.1199774876      -13.6606240313  MEMB      82              0.0000000000
     11713       110  DOPC      H2S            -6.8147769961       17.7462735822      -13.8299277264  MEMB      82              0.0000000000
     11714       110  DOPC      C3             -5.0563544526       20.8299626407      -16.5734246737  MEMB      82              0.0000000000
     11715       110  DOPC      HX             -5.1069817655       21.0205556948      -17.6667828806  MEMB      82              0.0000000000
     11716       110  DOPC      HY             -4.2091848552       21.3943042184      -16.1282914157  MEMB      82              0.0000000000
     11717       110  DOPC      O31            -6.2829006488       21.1106955893      -15.9302417094  MEMB      82              0.0000000000
     11718       110  DOPC      C31            -6.6083023733       22.3787853703      -15.8546184069  MEMB      82              0.0000000000
     11719       110  DOPC      O32            -5.9198961472       23.3076903242      -16.3174233926  MEMB      82              0.0000000000
     11720       110  DOPC      C32            -7.8613989027       22.5415054015      -14.9169810537  MEMB      82              0.0000000000
     11721       110  DOPC      H2X            -7.5141491535       22.5765040542      -13.8622234077  MEMB      82              0.0000000000
     11722       110  DOPC      H2Y            -8.4148443287       23.4898277990      -15.0864031943  MEMB      82              0.0000000000
     11723       110  DOPC      C23            -5.3432459645       17.6421787587      -12.2317198112  MEMB      82              0.0000000000
     11724       110  DOPC      H3R            -4.2794504688       17.4124258095      -12.0083962026  MEMB      82              0.0000000000
     11725       110  DOPC      H3S            -6.0206425606       17.1711194422      -11.4877051476  MEMB      82              0.0000000000
     11726       110  DOPC      C24            -5.4533268506       19.1839735366      -12.1209733158  MEMB      82              0.0000000000
     11727       110  DOPC      H4R            -6.4561876977       19.4760126658      -12.4995287571  MEMB      82              0.0000000000
     11728       110  DOPC      H4S            -4.6141050584       19.6731967460      -12.6601284975  MEMB      82              0.0000000000
     11729       110  DOPC      C25            -5.5385954788       19.7514956081      -10.7366430162  MEMB      82              0.0000000000
     11730       110  DOPC      H5R            -4.4981096038       19.8934577460      -10.3739356209  MEMB      82              0.0000000000
     11731       110  DOPC      H5S            -5.9949713212       19.0493694734      -10.0065327642  MEMB      82              0.0000000000
     11732       110  DOPC      C26            -6.2793869228       21.1066609097      -10.6454978952  MEMB      82              0.0000000000
     11733       110  DOPC      H6R            -7.2480529364       20.9549312497      -11.1679775199  MEMB      82              0.0000000000
     11734       110  DOPC      H6S            -5.7467374738       21.8373079477      -11.2910674650  MEMB      82              0.0000000000
     11735       110  DOPC      C27            -6.3270678976       21.6792469702       -9.2164213390  MEMB      82              0.0000000000
     11736       110  DOPC      H7R            -6.9255816795       20.9404476105       -8.6417231515  MEMB      82              0.0000000000
     11737       110  DOPC      H7S            -7.0030980865       22.5556920869       -9.3120670369  MEMB      82              0.0000000000
     11738       110  DOPC      C28            -4.8604718303       21.9587415600       -8.6213292438  MEMB      82              0.0000000000
     11739       110  DOPC      H8R            -4.7656074974       22.9874991904       -8.2126971947  MEMB      82              0.0000000000
     11740       110  DOPC      H8S            -4.2048118518       21.8844010254       -9.5151437078  MEMB      82              0.0000000000
     11741       110  DOPC      C29            -4.4023231616       21.0716016510       -7.5823863604  MEMB      82              0.0000000000
     11742       110  DOPC      H9R            -3.5171165792       20.4892749219       -7.8778602490  MEMB      82              0.0000000000
     11743       110  DOPC      C210           -4.7080178073       21.0186310077       -6.2680094317  MEMB      82              0.0000000000
     11744       110  DOPC      H10R           -4.1664124936       20.3839018212       -5.5512237060  MEMB      82              0.0000000000
     11745       110  DOPC      C211           -5.6874917093       21.9985177966       -5.7062665292  MEMB      82              0.0000000000
     11746       110  DOPC      H11R           -5.9042765372       22.8403027163       -6.3981646069  MEMB      82              0.0000000000
     11747       110  DOPC      H11S           -5.1947723768       22.4566204612       -4.8221331448  MEMB      82              0.0000000000
     11748       110  DOPC      C212           -6.9646496662       21.4015566244       -5.0964162247  MEMB      82              0.0000000000
     11749       110  DOPC      H12R           -6.6591100825       20.5159953498       -4.4991325778  MEMB      82              0.0000000000
     11750       110  DOPC      H12S           -7.5182986557       21.0431253548       -5.9904639088  MEMB      82              0.0000000000
     11751       110  DOPC      C213           -7.8192730066       22.5218940397       -4.3744268587  MEMB      82              0.0000000000
     11752       110  DOPC      H13R           -8.8851494846       22.2318641970       -4.2556368044  MEMB      82              0.0000000000
     11753       110  DOPC      H13S           -7.8558436116       23.4466452232       -4.9890964392  MEMB      82              0.0000000000
     11754       110  DOPC      C214           -7.3828775549       22.9097992678       -2.9389652992  MEMB      82              0.0000000000
     11755       110  DOPC      H14R           -7.9667875468       23.7240156068       -2.4589432741  MEMB      82              0.0000000000
     11756       110  DOPC      H14S           -6.2878808055       23.0926272230       -2.8956405195  MEMB      82              0.0000000000
     11757       110  DOPC      C215           -7.4355754052       21.7762603477       -1.8064659950  MEMB      82              0.0000000000
     11758       110  DOPC      H15R           -7.0275591124       20.8266092385       -2.2139054235  MEMB      82              0.0000000000
     11759       110  DOPC      H15S           -8.4998666390       21.5320328346       -1.6016296045  MEMB      82              0.0000000000
     11760       110  DOPC      C216           -6.8746810645       22.0431107849       -0.3997423724  MEMB      82              0.0000000000
     11761       110  DOPC      H16R           -7.6288157338       22.6129009394        0.1841596758  MEMB      82              0.0000000000
     11762       110  DOPC      H16S           -6.0421950012       22.7717908322       -0.5012963897  MEMB      82              0.0000000000
     11763       110  DOPC      C217           -6.4492640210       20.8132048642        0.4588306524  MEMB      82              0.0000000000
     11764       110  DOPC      H17R           -5.8306314674       20.2130216953       -0.2421652693  MEMB      82              0.0000000000
     11765       110  DOPC      H17S           -7.3640486899       20.1838679699        0.4965816717  MEMB      82              0.0000000000
     11766       110  DOPC      C218           -5.8348461523       21.0267560599        1.7916169775  MEMB      82              0.0000000000
     11767       110  DOPC      H18R           -4.9053283308       21.6345849148        1.7622587954  MEMB      82              0.0000000000
     11768       110  DOPC      H18S           -5.5125078057       20.0511734076        2.2142958407  MEMB      82              0.0000000000
     11769       110  DOPC      H18T           -6.5285535647       21.5056558428        2.5153204797  MEMB      82              0.0000000000
     11770       110  DOPC      C33            -8.8386629283       21.3522209056      -15.0479434735  MEMB      82              0.0000000000
     11771       110  DOPC      H3X            -8.2986333355       20.4010859622      -14.8529272538  MEMB      82              0.0000000000
     11772       110  DOPC      H3Y            -9.3334050538       21.1975686381      -16.0306101355  MEMB      82              0.0000000000
     11773       110  DOPC      C34            -9.9840616049       21.3237621779      -14.0387915478  MEMB      82              0.0000000000
     11774       110  DOPC      H4X           -10.6002137627       20.4017334006      -14.1061739392  MEMB      82              0.0000000000
     11775       110  DOPC      H4Y           -10.5485611772       22.2736408914      -14.1545167988  MEMB      82              0.0000000000
     11776       110  DOPC      C35            -9.7020340688       21.5284459839      -12.5572470217  MEMB      82              0.0000000000
     11777       110  DOPC      H5X            -9.0872829947       22.4387627626      -12.3907369888  MEMB      82              0.0000000000
     11778       110  DOPC      H5Y            -9.1329194435       20.7117095241      -12.0639202405  MEMB      82              0.0000000000
     11779       110  DOPC      C36           -11.0029280859       21.8263074315      -11.7056818096  MEMB      82              0.0000000000
     11780       110  DOPC      H6X           -11.3610918575       22.8154052610      -12.0630677605  MEMB      82              0.0000000000
     11781       110  DOPC      H6Y           -11.7652001103       21.0440646562      -11.9090512809  MEMB      82              0.0000000000
     11782       110  DOPC      C37           -10.7405318189       21.8897554932      -10.2044217414  MEMB      82              0.0000000000
     11783       110  DOPC      H7X            -9.8494281068       22.5521665788      -10.1661243946  MEMB      82              0.0000000000
     11784       110  DOPC      H7Y           -11.6505771470       22.3618920414       -9.7763732922  MEMB      82              0.0000000000
     11785       110  DOPC      C38           -10.2755583097       20.5981493162       -9.5486274844  MEMB      82              0.0000000000
     11786       110  DOPC      H8X            -9.9603999024       20.9039935788       -8.5281106354  MEMB      82              0.0000000000
     11787       110  DOPC      H8Y            -9.3465902941       20.2369017827      -10.0393816933  MEMB      82              0.0000000000
     11788       110  DOPC      C39           -11.3169644813       19.5332815914       -9.4696642016  MEMB      82              0.0000000000
     11789       110  DOPC      H9X           -12.0254086832       19.4994177960      -10.3104730072  MEMB      82              0.0000000000
     11790       110  DOPC      C310          -11.5646682780       18.7218091271       -8.4212537324  MEMB      82              0.0000000000
     11791       110  DOPC      H10X          -12.3955121520       18.0343107779       -8.6381516955  MEMB      82              0.0000000000
     11792       110  DOPC      C311          -10.8294678740       18.7226917608       -7.0728512729  MEMB      82              0.0000000000
     11793       110  DOPC      H11X           -9.8097859097       19.1089800540       -7.2858091364  MEMB      82              0.0000000000
     11794       110  DOPC      H11Y          -10.5279305473       17.7118133084       -6.7242529628  MEMB      82              0.0000000000
     11795       110  DOPC      C312          -11.3672990362       19.6558706371       -5.9733723132  MEMB      82              0.0000000000
     11796       110  DOPC      H12X          -12.2633222048       19.1496701082       -5.5547743925  MEMB      82              0.0000000000
     11797       110  DOPC      H12Y          -11.6333716653       20.6452256109       -6.4031432629  MEMB      82              0.0000000000
     11798       110  DOPC      C313          -10.3878709192       19.8392673570       -4.8567920517  MEMB      82              0.0000000000
     11799       110  DOPC      H13X           -9.4593017728       20.1623186172       -5.3742067318  MEMB      82              0.0000000000
     11800       110  DOPC      H13Y          -10.7934141716       20.7029081097       -4.2875992910  MEMB      82              0.0000000000
     11801       110  DOPC      C314          -10.0930537570       18.6049842025       -3.9715029866  MEMB      82              0.0000000000
     11802       110  DOPC      H14X          -11.0552696747       18.1528007625       -3.6490253327  MEMB      82              0.0000000000
     11803       110  DOPC      H14Y           -9.5522865136       17.8090288706       -4.5267929338  MEMB      82              0.0000000000
     11804       110  DOPC      C315           -9.2030045229       18.8706589976       -2.7274098049  MEMB      82              0.0000000000
     11805       110  DOPC      H15X           -9.6974366755       19.5440418030       -1.9950078844  MEMB      82              0.0000000000
     11806       110  DOPC      H15Y           -8.2232047380       19.2554157071       -3.0827630680  MEMB      82              0.0000000000
     11807       110  DOPC      C316           -8.9148580540       17.5451949544       -1.9874343683  MEMB      82              0.0000000000
     11808       110  DOPC      H16X           -9.8053192812       17.1296065227       -1.4690844472  MEMB      82              0.0000000000
     11809       110  DOPC      H16Y           -8.3741466499       16.8640372267       -2.6787916148  MEMB      82              0.0000000000
     11810       110  DOPC      C317           -7.9512421105       17.7712092520       -0.7820325861  MEMB      82              0.0000000000
     11811       110  DOPC      H17X           -7.0944380928       18.3762919899       -1.1482055323  MEMB      82              0.0000000000
     11812       110  DOPC      H17Y           -8.4389671216       18.3964379796       -0.0038719700  MEMB      82              0.0000000000
     11813       110  DOPC      C318           -7.2105903209       16.4904436201       -0.3491064152  MEMB      82              0.0000000000
     11814       110  DOPC      H18X           -7.9759685231       15.6983328726       -0.2039245171  MEMB      82              0.0000000000
     11815       110  DOPC      H18Y           -6.4785988800       16.2260246134       -1.1419459187  MEMB      82              0.0000000000
     11816       110  DOPC      H18Z           -6.6075449919       16.5571007030        0.5815983068  MEMB      82              0.0000000000
     11817       111  DOPC      N              -5.3077212136      -20.9567925649      -20.6059307874  MEMB      83              0.0000000000
     11818       111  DOPC      C12            -5.2632127250      -21.1608878959      -19.0695429068  MEMB      83              0.0000000000
     11819       111  DOPC      H12A           -5.0960439160      -22.2175164502      -18.9212496380  MEMB      83              0.0000000000
     11820       111  DOPC      H12B           -6.2073802236      -20.8827819904      -18.6250152407  MEMB      83              0.0000000000
     11821       111  DOPC      C13            -3.9066127441      -21.1508951562      -21.2183634799  MEMB      83              0.0000000000
     11822       111  DOPC      H13A           -3.6460670954      -22.1094819125      -20.7945388163  MEMB      83              0.0000000000
     11823       111  DOPC      H13B           -4.0384626403      -21.2738832017      -22.2832059787  MEMB      83              0.0000000000
     11824       111  DOPC      H13C           -3.2572677411      -20.3206638561      -20.9828492450  MEMB      83              0.0000000000
     11825       111  DOPC      C14            -5.8418265183      -19.5944729360      -20.8907482642  MEMB      83              0.0000000000
     11826       111  DOPC      H14A           -5.7283505193      -19.4120489031      -21.9491644511  MEMB      83              0.0000000000
     11827       111  DOPC      H14B           -6.8843258012      -19.5402953219      -20.6138730564  MEMB      83              0.0000000000
     11828       111  DOPC      H14C           -5.2805433390      -18.8597488458      -20.3325889444  MEMB      83              0.0000000000
     11829       111  DOPC      C15            -6.2390214775      -21.8954370390      -21.3063931188  MEMB      83              0.0000000000
     11830       111  DOPC      H15A           -7.2898698974      -21.6766570387      -21.1870069746  MEMB      83              0.0000000000
     11831       111  DOPC      H15B           -6.3059254784      -22.8201072747      -20.7523995333  MEMB      83              0.0000000000
     11832       111  DOPC      H15C           -5.8873331785      -22.1405203449      -22.2976798457  MEMB      83              0.0000000000
     11833       111  DOPC      C11            -4.1996841537      -20.4925815656      -18.1695226524  MEMB      83              0.0000000000
     11834       111  DOPC      H11A           -4.5136608999      -20.6995021766      -17.1240928451  MEMB      83              0.0000000000
     11835       111  DOPC      H11B           -3.2330416509      -20.9276937697      -18.5020891615  MEMB      83              0.0000000000
     11836       111  DOPC      P              -3.3959553215      -18.0065445562      -17.5783187628  MEMB      83              0.0000000000
     11837       111  DOPC      O13            -3.5484848190      -16.7265584784      -18.2951557056  MEMB      83              0.0000000000
     11838       111  DOPC      O14            -2.0348318331      -18.4265680625      -17.2108221196  MEMB      83              0.0000000000
     11839       111  DOPC      O12            -4.1084308946      -19.1170558731      -18.4682947411  MEMB      83              0.0000000000
     11840       111  DOPC      O11            -4.2168339825      -17.9134307249      -16.1869074590  MEMB      83              0.0000000000
     11841       111  DOPC      C1             -5.5612059850      -17.4746500468      -16.2944584052  MEMB      83              0.0000000000
     11842       111  DOPC      HA             -6.1441586315      -18.0754548757      -15.5640334428  MEMB      83              0.0000000000
     11843       111  DOPC      HB             -6.0253951303      -17.7040909693      -17.2774163903  MEMB      83              0.0000000000
     11844       111  DOPC      C2             -5.6611245600      -15.9777691247      -15.8750877845  MEMB      83              0.0000000000
     11845       111  DOPC      HS             -5.0912814944      -15.4355232402      -16.6596701566  MEMB      83              0.0000000000
     11846       111  DOPC      O21            -5.0528892834      -15.7997663774      -14.5876964152  MEMB      83              0.0000000000
     11847       111  DOPC      C21            -4.7605809079      -14.6307901851      -14.2460965539  MEMB      83              0.0000000000
     11848       111  DOPC      O22            -4.8612312436      -13.6161936156      -14.9139404274  MEMB      83              0.0000000000
     11849       111  DOPC      C22            -4.2468232339      -14.5026043546      -12.7997202604  MEMB      83              0.0000000000
     11850       111  DOPC      H2R            -5.1745357804      -14.1434592841      -12.3050630386  MEMB      83              0.0000000000
     11851       111  DOPC      H2S            -3.5314506017      -13.6552390130      -12.8670602843  MEMB      83              0.0000000000
     11852       111  DOPC      C3             -7.1500103006      -15.4717280690      -15.9082214903  MEMB      83              0.0000000000
     11853       111  DOPC      HX             -7.6762261117      -15.6293333410      -16.8739225590  MEMB      83              0.0000000000
     11854       111  DOPC      HY             -7.0663448878      -14.3835335578      -15.7004870736  MEMB      83              0.0000000000
     11855       111  DOPC      O31            -7.9496599493      -16.1842113493      -14.9480864493  MEMB      83              0.0000000000
     11856       111  DOPC      C31            -8.2941535625      -15.5151383736      -13.8403685085  MEMB      83              0.0000000000
     11857       111  DOPC      O32            -7.9591937355      -14.3925549908      -13.5552076718  MEMB      83              0.0000000000
     11858       111  DOPC      C32            -9.2042525842      -16.2822174856      -12.8584147487  MEMB      83              0.0000000000
     11859       111  DOPC      H2X            -9.2782972992      -15.7201816746      -11.9029285095  MEMB      83              0.0000000000
     11860       111  DOPC      H2Y           -10.2018686451      -16.4266139114      -13.3255691014  MEMB      83              0.0000000000
     11861       111  DOPC      C23            -3.6629086157      -15.7857959099      -12.1837020001  MEMB      83              0.0000000000
     11862       111  DOPC      H3R            -2.9184612719      -16.2175978458      -12.8863156520  MEMB      83              0.0000000000
     11863       111  DOPC      H3S            -4.5126888300      -16.4892374443      -12.0519267839  MEMB      83              0.0000000000
     11864       111  DOPC      C24            -2.8383601072      -15.4522070634      -10.8293791427  MEMB      83              0.0000000000
     11865       111  DOPC      H4R            -1.9228632065      -14.8442225187      -10.9922926241  MEMB      83              0.0000000000
     11866       111  DOPC      H4S            -2.6037224392      -16.3931558655      -10.2872707954  MEMB      83              0.0000000000
     11867       111  DOPC      C25            -3.5522828969      -14.5067499154       -9.8568334398  MEMB      83              0.0000000000
     11868       111  DOPC      H5R            -3.6794930894      -13.5378882017      -10.3854594994  MEMB      83              0.0000000000
     11869       111  DOPC      H5S            -2.7153166905      -14.4360208954       -9.1296434470  MEMB      83              0.0000000000
     11870       111  DOPC      C26            -4.8603260784      -14.9736003102       -9.2678884693  MEMB      83              0.0000000000
     11871       111  DOPC      H6R            -5.7016356357      -14.8888248508       -9.9885359871  MEMB      83              0.0000000000
     11872       111  DOPC      H6S            -5.2085690924      -14.4431361819       -8.3559371787  MEMB      83              0.0000000000
     11873       111  DOPC      C27            -4.7575645118      -16.4323048667       -8.6739641442  MEMB      83              0.0000000000
     11874       111  DOPC      H7R            -3.7505068426      -16.7307598078       -8.3119133932  MEMB      83              0.0000000000
     11875       111  DOPC      H7S            -4.8709073266      -17.1073385688       -9.5490660302  MEMB      83              0.0000000000
     11876       111  DOPC      C28            -5.8784935817      -16.8211852411       -7.6796524173  MEMB      83              0.0000000000
     11877       111  DOPC      H8R            -5.9890144226      -16.0532936855       -6.8843849198  MEMB      83              0.0000000000
     11878       111  DOPC      H8S            -5.6007724163      -17.7607247644       -7.1557653458  MEMB      83              0.0000000000
     11879       111  DOPC      C29            -7.2845259724      -16.8413523489       -8.3115225470  MEMB      83              0.0000000000
     11880       111  DOPC      H9R            -7.6853497311      -15.9104479918       -8.7390238115  MEMB      83              0.0000000000
     11881       111  DOPC      C210           -8.1181219354      -17.8932934099       -8.2164723885  MEMB      83              0.0000000000
     11882       111  DOPC      H10R           -9.1358937669      -17.6500156343       -8.5555248334  MEMB      83              0.0000000000
     11883       111  DOPC      C211           -7.9519963283      -19.2061348787       -7.5387508470  MEMB      83              0.0000000000
     11884       111  DOPC      H11R           -6.9190610527      -19.3222703605       -7.1464774174  MEMB      83              0.0000000000
     11885       111  DOPC      H11S           -8.1636384709      -19.9035430958       -8.3772914938  MEMB      83              0.0000000000
     11886       111  DOPC      C212           -8.9637965329      -19.7414154761       -6.4491568739  MEMB      83              0.0000000000
     11887       111  DOPC      H12R           -8.5407597460      -20.7182921741       -6.1312377024  MEMB      83              0.0000000000
     11888       111  DOPC      H12S           -9.9459191237      -20.0212831614       -6.8866848848  MEMB      83              0.0000000000
     11889       111  DOPC      C213           -9.1976489118      -18.7442276908       -5.2944844149  MEMB      83              0.0000000000
     11890       111  DOPC      H13R           -9.8416174595      -19.2581535195       -4.5491619915  MEMB      83              0.0000000000
     11891       111  DOPC      H13S           -9.7526270524      -17.9079914740       -5.7709606909  MEMB      83              0.0000000000
     11892       111  DOPC      C214           -8.0149190015      -18.1337407736       -4.5829410201  MEMB      83              0.0000000000
     11893       111  DOPC      H14R           -7.2904150592      -17.9428450445       -5.4032914356  MEMB      83              0.0000000000
     11894       111  DOPC      H14S           -7.6560566333      -18.7425181368       -3.7256617128  MEMB      83              0.0000000000
     11895       111  DOPC      C215           -8.1773927385      -16.7330212635       -4.0507657773  MEMB      83              0.0000000000
     11896       111  DOPC      H15R           -8.9283192051      -16.1928281862       -4.6660881492  MEMB      83              0.0000000000
     11897       111  DOPC      H15S           -7.2398365016      -16.1440921420       -4.1428080454  MEMB      83              0.0000000000
     11898       111  DOPC      C216           -8.7310511027      -16.7429229323       -2.6346999630  MEMB      83              0.0000000000
     11899       111  DOPC      H16R           -9.3178560402      -17.6595882126       -2.4117527507  MEMB      83              0.0000000000
     11900       111  DOPC      H16S           -9.2258464902      -15.7806871541       -2.3825081320  MEMB      83              0.0000000000
     11901       111  DOPC      C217           -7.4986265182      -16.7574137950       -1.7027641897  MEMB      83              0.0000000000
     11902       111  DOPC      H17R           -6.8206245218      -15.9042645663       -1.9190294083  MEMB      83              0.0000000000
     11903       111  DOPC      H17S           -7.0107058810      -17.7042391416       -2.0186375409  MEMB      83              0.0000000000
     11904       111  DOPC      C218           -7.9639739310      -16.7157923500       -0.2576835727  MEMB      83              0.0000000000
     11905       111  DOPC      H18R           -8.5954708614      -15.8169998909       -0.0912349270  MEMB      83              0.0000000000
     11906       111  DOPC      H18S           -7.1004358534      -16.7146229511        0.4413324601  MEMB      83              0.0000000000
     11907       111  DOPC      H18T           -8.4933654169      -17.6736544936       -0.0664607353  MEMB      83              0.0000000000
     11908       111  DOPC      C33            -8.6078999947      -17.6334186548      -12.4279356371  MEMB      83              0.0000000000
     11909       111  DOPC      H3X            -9.0030877260      -18.4193332552      -13.1065267232  MEMB      83              0.0000000000
     11910       111  DOPC      H3Y            -8.9089736579      -17.9402975155      -11.4034841184  MEMB      83              0.0000000000
     11911       111  DOPC      C34            -7.0522166511      -17.7476540850      -12.3202190533  MEMB      83              0.0000000000
     11912       111  DOPC      H4X            -6.6591702466      -16.9572065407      -11.6456611825  MEMB      83              0.0000000000
     11913       111  DOPC      H4Y            -6.5244419100      -17.5296611859      -13.2732423984  MEMB      83              0.0000000000
     11914       111  DOPC      C35            -6.5533378834      -19.1226885869      -11.8025528282  MEMB      83              0.0000000000
     11915       111  DOPC      H5X            -7.4508991908      -19.7772707373      -11.7874993470  MEMB      83              0.0000000000
     11916       111  DOPC      H5Y            -6.1496695227      -18.9485577335      -10.7822335067  MEMB      83              0.0000000000
     11917       111  DOPC      C36            -5.4725561762      -19.8209165350      -12.6454348341  MEMB      83              0.0000000000
     11918       111  DOPC      H6X            -5.9828543102      -20.2869411939      -13.5153413743  MEMB      83              0.0000000000
     11919       111  DOPC      H6Y            -4.7915708191      -19.0879154101      -13.1284351301  MEMB      83              0.0000000000
     11920       111  DOPC      C37            -4.7303260471      -21.0011685660      -11.9309589522  MEMB      83              0.0000000000
     11921       111  DOPC      H7X            -5.4818461031      -21.6913209430      -11.4913818289  MEMB      83              0.0000000000
     11922       111  DOPC      H7Y            -4.2284739141      -21.5347815424      -12.7662573464  MEMB      83              0.0000000000
     11923       111  DOPC      C38            -3.6495612537      -20.4697317951      -10.9314001765  MEMB      83              0.0000000000
     11924       111  DOPC      H8X            -4.1420341212      -19.7977797488      -10.1963683008  MEMB      83              0.0000000000
     11925       111  DOPC      H8Y            -2.8803595893      -19.9245421005      -11.5191227373  MEMB      83              0.0000000000
     11926       111  DOPC      C39            -3.0848733586      -21.6601559766      -10.1261199854  MEMB      83              0.0000000000
     11927       111  DOPC      H9X            -2.2317206958      -22.1207608524      -10.6457095917  MEMB      83              0.0000000000
     11928       111  DOPC      C310           -3.6171115123      -22.1271293153       -9.0234832732  MEMB      83              0.0000000000
     11929       111  DOPC      H10X           -3.1521034795      -22.9737547760       -8.4971822261  MEMB      83              0.0000000000
     11930       111  DOPC      C311           -4.8203200091      -21.6162567663       -8.3191048993  MEMB      83              0.0000000000
     11931       111  DOPC      H11X           -5.4708469306      -22.5146704218       -8.2559485039  MEMB      83              0.0000000000
     11932       111  DOPC      H11Y           -5.3137209655      -20.9085719560       -9.0191469193  MEMB      83              0.0000000000
     11933       111  DOPC      C312           -4.6330451523      -20.9067317699       -7.0236066543  MEMB      83              0.0000000000
     11934       111  DOPC      H12X           -5.5846176227      -20.7722056649       -6.4661719317  MEMB      83              0.0000000000
     11935       111  DOPC      H12Y           -4.2658166678      -19.9374038352       -7.4234417760  MEMB      83              0.0000000000
     11936       111  DOPC      C313           -3.4737890540      -21.3731237090       -6.0832366849  MEMB      83              0.0000000000
     11937       111  DOPC      H13X           -3.6845556739      -22.4053048550       -5.7303904072  MEMB      83              0.0000000000
     11938       111  DOPC      H13Y           -2.4557326873      -21.4174807482       -6.5258582212  MEMB      83              0.0000000000
     11939       111  DOPC      C314           -3.4217069454      -20.6242075873       -4.7017811927  MEMB      83              0.0000000000
     11940       111  DOPC      H14X           -3.9168182939      -21.1815721479       -3.8780515404  MEMB      83              0.0000000000
     11941       111  DOPC      H14Y           -2.3656731923      -20.3781499289       -4.4597705039  MEMB      83              0.0000000000
     11942       111  DOPC      C315           -4.1726040192      -19.2855071206       -4.6256409673  MEMB      83              0.0000000000
     11943       111  DOPC      H15X           -5.2654130676      -19.4594822363       -4.5265340585  MEMB      83              0.0000000000
     11944       111  DOPC      H15Y           -4.0544329281      -18.7837059890       -5.6097909441  MEMB      83              0.0000000000
     11945       111  DOPC      C316           -3.5918435500      -18.4280659576       -3.5434109462  MEMB      83              0.0000000000
     11946       111  DOPC      H16X           -3.9196431202      -18.7416778019       -2.5292527507  MEMB      83              0.0000000000
     11947       111  DOPC      H16Y           -2.4826018374      -18.4905002169       -3.5458379758  MEMB      83              0.0000000000
     11948       111  DOPC      C317           -3.8798141137      -16.8856400767       -3.5737236330  MEMB      83              0.0000000000
     11949       111  DOPC      H17X           -3.3845094057      -16.4147027738       -4.4496299009  MEMB      83              0.0000000000
     11950       111  DOPC      H17Y           -4.9750229386      -16.8140435458       -3.7460973246  MEMB      83              0.0000000000
     11951       111  DOPC      C318           -3.5624782462      -16.0952306082       -2.2776558509  MEMB      83              0.0000000000
     11952       111  DOPC      H18X           -3.7160271912      -14.9951240061       -2.3002312879  MEMB      83              0.0000000000
     11953       111  DOPC      H18Y           -4.0800120505      -16.5142233596       -1.3883161968  MEMB      83              0.0000000000
     11954       111  DOPC      H18Z           -2.5510493405      -16.3857076811       -1.9213479595  MEMB      83              0.0000000000
     11955       112  DOPC      N             -16.0333859328       12.1898794079      -17.0026037994  MEMB      84              0.0000000000
     11956       112  DOPC      C12           -15.3855723902       11.3078633519      -18.0787978007  MEMB      84              0.0000000000
     11957       112  DOPC      H12A          -15.3086799109       10.3146448157      -17.6616593715  MEMB      84              0.0000000000
     11958       112  DOPC      H12B          -14.3884386269       11.6093699986      -18.3637855014  MEMB      84              0.0000000000
     11959       112  DOPC      C13           -15.8850100740       13.6542474235      -17.4379073132  MEMB      84              0.0000000000
     11960       112  DOPC      H13A          -16.4039579081       14.3192007159      -16.7634220355  MEMB      84              0.0000000000
     11961       112  DOPC      H13B          -14.8669246891       13.9575644800      -17.6325891221  MEMB      84              0.0000000000
     11962       112  DOPC      H13C          -16.4017893955       13.6847244836      -18.3857524074  MEMB      84              0.0000000000
     11963       112  DOPC      C14           -15.2926653551       11.9230405768      -15.6934320883  MEMB      84              0.0000000000
     11964       112  DOPC      H14A          -15.6022715051       12.5825301970      -14.8961756944  MEMB      84              0.0000000000
     11965       112  DOPC      H14B          -15.3871632065       10.9266695585      -15.2875810860  MEMB      84              0.0000000000
     11966       112  DOPC      H14C          -14.2216277062       11.9422272269      -15.8309467924  MEMB      84              0.0000000000
     11967       112  DOPC      C15           -17.4472673719       11.8281069160      -16.8354860627  MEMB      84              0.0000000000
     11968       112  DOPC      H15A          -17.8331705880       12.3230500484      -15.9565607214  MEMB      84              0.0000000000
     11969       112  DOPC      H15B          -17.5378039469       10.7818187765      -16.5835253227  MEMB      84              0.0000000000
     11970       112  DOPC      H15C          -18.0906448966       12.1422114876      -17.6440673778  MEMB      84              0.0000000000
     11971       112  DOPC      C11           -16.0340287748       11.2011356725      -19.4797356947  MEMB      84              0.0000000000
     11972       112  DOPC      H11A          -15.5278826265       10.5039188794      -20.1811811204  MEMB      84              0.0000000000
     11973       112  DOPC      H11B          -17.0805949080       10.8290436282      -19.4559020657  MEMB      84              0.0000000000
     11974       112  DOPC      P             -14.7581390022       12.9118512982      -20.9260927259  MEMB      84              0.0000000000
     11975       112  DOPC      O13           -14.4898844459       14.2554977399      -20.4596137869  MEMB      84              0.0000000000
     11976       112  DOPC      O14           -14.9424516352       12.8559398481      -22.4039811555  MEMB      84              0.0000000000
     11977       112  DOPC      O12           -16.0931874877       12.4833552320      -20.2311075890  MEMB      84              0.0000000000
     11978       112  DOPC      O11           -13.6420655350       11.8748506303      -20.4512420110  MEMB      84              0.0000000000
     11979       112  DOPC      C1            -12.5251752536       11.6983502459      -21.2235879063  MEMB      84              0.0000000000
     11980       112  DOPC      HA            -12.2229926111       12.5281119402      -21.8977556432  MEMB      84              0.0000000000
     11981       112  DOPC      HB            -12.7558039279       10.8380155607      -21.8876329197  MEMB      84              0.0000000000
     11982       112  DOPC      C2            -11.3282565558       11.6688419270      -20.3219431679  MEMB      84              0.0000000000
     11983       112  DOPC      HS            -10.5257611528       11.1364244846      -20.8758875189  MEMB      84              0.0000000000
     11984       112  DOPC      O21           -11.5446694666       10.9099185143      -19.1176579466  MEMB      84              0.0000000000
     11985       112  DOPC      C21           -11.9080972414        9.6030669448      -19.2564475033  MEMB      84              0.0000000000
     11986       112  DOPC      O22           -12.1313579521        9.0349397102      -20.3114803762  MEMB      84              0.0000000000
     11987       112  DOPC      C22           -11.8542164692        8.8526439531      -17.8944434891  MEMB      84              0.0000000000
     11988       112  DOPC      H2R           -10.8472812853        8.4053904485      -17.7517307031  MEMB      84              0.0000000000
     11989       112  DOPC      H2S           -12.5940257898        8.0239753539      -17.8768028293  MEMB      84              0.0000000000
     11990       112  DOPC      C3            -10.8731256731       13.1086144293      -19.9555083512  MEMB      84              0.0000000000
     11991       112  DOPC      HX            -10.5345220324       13.5769642224      -20.9043586702  MEMB      84              0.0000000000
     11992       112  DOPC      HY             -9.9286945397       13.0231745362      -19.3766552158  MEMB      84              0.0000000000
     11993       112  DOPC      O31           -11.8981379739       13.9660609531      -19.3400270148  MEMB      84              0.0000000000
     11994       112  DOPC      C31           -11.8568272639       13.9778176475      -17.9319487147  MEMB      84              0.0000000000
     11995       112  DOPC      O32           -11.1785776244       13.2701794751      -17.2645851869  MEMB      84              0.0000000000
     11996       112  DOPC      C32           -12.6577136148       15.1787809675      -17.4651672079  MEMB      84              0.0000000000
     11997       112  DOPC      H2X           -12.0805287580       16.1256145169      -17.5336113567  MEMB      84              0.0000000000
     11998       112  DOPC      H2Y           -13.5548681738       15.2271933333      -18.1186893117  MEMB      84              0.0000000000
     11999       112  DOPC      C23           -11.9229274092       10.0025042393      -16.7446552703  MEMB      84              0.0000000000
     12000       112  DOPC      H3R           -12.8437311748       10.5922374743      -16.9412675319  MEMB      84              0.0000000000
     12001       112  DOPC      H3S           -11.0623114116       10.7034000602      -16.6956008751  MEMB      84              0.0000000000
     12002       112  DOPC      C24           -11.9644658212        9.4418625201      -15.2972078853  MEMB      84              0.0000000000
     12003       112  DOPC      H4R           -11.0486259908        8.8461164405      -15.0956024691  MEMB      84              0.0000000000
     12004       112  DOPC      H4S           -12.7805949585        8.6899973568      -15.2428679502  MEMB      84              0.0000000000
     12005       112  DOPC      C25           -12.1179698048       10.5496436622      -14.2918896166  MEMB      84              0.0000000000
     12006       112  DOPC      H5R           -13.0108661898       11.1181809781      -14.6292654817  MEMB      84              0.0000000000
     12007       112  DOPC      H5S           -11.2316369098       11.2131165238      -14.3842960247  MEMB      84              0.0000000000
     12008       112  DOPC      C26           -12.2588765395       10.2604086047      -12.7741495463  MEMB      84              0.0000000000
     12009       112  DOPC      H6R           -12.5204601817       11.1697347741      -12.1918942997  MEMB      84              0.0000000000
     12010       112  DOPC      H6S           -11.2568096853        9.9517185072      -12.4068711194  MEMB      84              0.0000000000
     12011       112  DOPC      C27           -13.2450038735        9.1432983871      -12.4977467619  MEMB      84              0.0000000000
     12012       112  DOPC      H7R           -12.7541566657        8.1787030812      -12.7486373306  MEMB      84              0.0000000000
     12013       112  DOPC      H7S           -14.1663292623        9.1911976004      -13.1167672222  MEMB      84              0.0000000000
     12014       112  DOPC      C28           -13.6925412566        9.2152780093      -11.0312497351  MEMB      84              0.0000000000
     12015       112  DOPC      H8R           -12.8319103018        9.4870662985      -10.3833557452  MEMB      84              0.0000000000
     12016       112  DOPC      H8S           -14.0334014472        8.1911023312      -10.7681929211  MEMB      84              0.0000000000
     12017       112  DOPC      C29           -14.7730434091       10.1863997993      -10.7209513006  MEMB      84              0.0000000000
     12018       112  DOPC      H9R           -14.6910902889       11.1771633240      -11.1917716336  MEMB      84              0.0000000000
     12019       112  DOPC      C210          -15.7523228204       10.0565157623       -9.8006828616  MEMB      84              0.0000000000
     12020       112  DOPC      H10R          -16.4618474762       10.8914859654       -9.7037338184  MEMB      84              0.0000000000
     12021       112  DOPC      C211          -16.0780395042        8.9125441690       -8.8690761851  MEMB      84              0.0000000000
     12022       112  DOPC      H11R          -15.4022436170        8.0994299323       -9.2103474566  MEMB      84              0.0000000000
     12023       112  DOPC      H11S          -17.1448159712        8.6030541072       -8.8461599595  MEMB      84              0.0000000000
     12024       112  DOPC      C212          -15.5919755828        9.1868442309       -7.4603440208  MEMB      84              0.0000000000
     12025       112  DOPC      H12R          -14.5011308999        9.3861324132       -7.5286300744  MEMB      84              0.0000000000
     12026       112  DOPC      H12S          -15.7981366025        8.2509585012       -6.8982617810  MEMB      84              0.0000000000
     12027       112  DOPC      C213          -16.2016051279       10.4183729111       -6.7386754129  MEMB      84              0.0000000000
     12028       112  DOPC      H13R          -17.2438536105       10.6191492717       -7.0668943053  MEMB      84              0.0000000000
     12029       112  DOPC      H13S          -15.6992342824       11.3622125691       -7.0405216863  MEMB      84              0.0000000000
     12030       112  DOPC      C214          -15.9178493714       10.3460465644       -5.2221488244  MEMB      84              0.0000000000
     12031       112  DOPC      H14R          -14.8116515671       10.2486403694       -5.1880984802  MEMB      84              0.0000000000
     12032       112  DOPC      H14S          -16.3176121621        9.3816622646       -4.8420525326  MEMB      84              0.0000000000
     12033       112  DOPC      C215          -16.4641958464       11.5215018368       -4.4435429552  MEMB      84              0.0000000000
     12034       112  DOPC      H15R          -16.4872798276       11.2113545206       -3.3769611085  MEMB      84              0.0000000000
     12035       112  DOPC      H15S          -17.5126195479       11.7714904470       -4.7130500984  MEMB      84              0.0000000000
     12036       112  DOPC      C216          -15.6020729282       12.7436909712       -4.4634919063  MEMB      84              0.0000000000
     12037       112  DOPC      H16R          -16.2338079412       13.6077309584       -4.1657223271  MEMB      84              0.0000000000
     12038       112  DOPC      H16S          -15.3480156517       13.0109383123       -5.5115160250  MEMB      84              0.0000000000
     12039       112  DOPC      C217          -14.3662993798       12.6602483468       -3.5525281616  MEMB      84              0.0000000000
     12040       112  DOPC      H17R          -13.6539231522       11.9618934330       -4.0415483542  MEMB      84              0.0000000000
     12041       112  DOPC      H17S          -14.6559795439       12.2822522630       -2.5487711316  MEMB      84              0.0000000000
     12042       112  DOPC      C218          -13.7778012979       14.1116489773       -3.3694682832  MEMB      84              0.0000000000
     12043       112  DOPC      H18R          -13.7143364105       14.6025213955       -4.3641233024  MEMB      84              0.0000000000
     12044       112  DOPC      H18S          -12.8052449574       14.2132942953       -2.8420947804  MEMB      84              0.0000000000
     12045       112  DOPC      H18T          -14.5053886442       14.6756796113       -2.7475293585  MEMB      84              0.0000000000
     12046       112  DOPC      C33           -13.0496838075       14.9684056364      -15.9905422442  MEMB      84              0.0000000000
     12047       112  DOPC      H3X           -12.1243253456       15.0634015459      -15.3830816052  MEMB      84              0.0000000000
     12048       112  DOPC      H3Y           -13.4211846236       13.9307868235      -15.8503445440  MEMB      84              0.0000000000
     12049       112  DOPC      C34           -14.1108245256       15.8702447101      -15.4557869626  MEMB      84              0.0000000000
     12050       112  DOPC      H4X           -14.9593200652       15.6844608629      -16.1485067980  MEMB      84              0.0000000000
     12051       112  DOPC      H4Y           -13.8996999178       16.9609816145      -15.4621291851  MEMB      84              0.0000000000
     12052       112  DOPC      C35           -14.5775576439       15.5204239552      -14.0967041019  MEMB      84              0.0000000000
     12053       112  DOPC      H5X           -14.8700745021       14.4795806400      -13.8409697212  MEMB      84              0.0000000000
     12054       112  DOPC      H5Y           -15.5433402759       16.0325580709      -13.8984524749  MEMB      84              0.0000000000
     12055       112  DOPC      C36           -13.7031017952       16.0377866404      -12.9780040978  MEMB      84              0.0000000000
     12056       112  DOPC      H6X           -12.7096595590       15.5669337236      -13.1382888842  MEMB      84              0.0000000000
     12057       112  DOPC      H6Y           -13.5116114628       17.1318401332      -13.0044490830  MEMB      84              0.0000000000
     12058       112  DOPC      C37           -14.2640556220       15.6506633444      -11.5509182885  MEMB      84              0.0000000000
     12059       112  DOPC      H7X           -13.7070310365       16.2255226873      -10.7804759927  MEMB      84              0.0000000000
     12060       112  DOPC      H7Y           -15.2650980873       16.1309296634      -11.5906587893  MEMB      84              0.0000000000
     12061       112  DOPC      C38           -14.2720166554       14.1826890519      -11.2410440399  MEMB      84              0.0000000000
     12062       112  DOPC      H8X           -13.3188661694       13.6892615763      -11.5280187757  MEMB      84              0.0000000000
     12063       112  DOPC      H8Y           -15.0048272961       13.6951581451      -11.9189990848  MEMB      84              0.0000000000
     12064       112  DOPC      C39           -14.6768539065       13.8351467899       -9.7638756199  MEMB      84              0.0000000000
     12065       112  DOPC      H9X           -15.7476053581       13.8785599111       -9.5156690621  MEMB      84              0.0000000000
     12066       112  DOPC      C310          -13.8504740334       13.3799800123       -8.8304883703  MEMB      84              0.0000000000
     12067       112  DOPC      H10X          -14.2957228400       13.1311019456       -7.8559047285  MEMB      84              0.0000000000
     12068       112  DOPC      C311          -12.3842848178       13.0910318440       -8.8344740860  MEMB      84              0.0000000000
     12069       112  DOPC      H11X          -12.1494068961       12.5761103625       -9.7905123027  MEMB      84              0.0000000000
     12070       112  DOPC      H11Y          -12.0954971014       12.3381121042       -8.0702531444  MEMB      84              0.0000000000
     12071       112  DOPC      C312          -11.4246611405       14.3114858921       -8.7658331371  MEMB      84              0.0000000000
     12072       112  DOPC      H12X          -11.3594064060       14.6152019828       -9.8325190370  MEMB      84              0.0000000000
     12073       112  DOPC      H12Y          -10.4029762935       13.9348381422       -8.5453383893  MEMB      84              0.0000000000
     12074       112  DOPC      C313          -11.7370627699       15.4770764488       -7.7729394194  MEMB      84              0.0000000000
     12075       112  DOPC      H13X          -12.4528014792       16.1725428989       -8.2611663972  MEMB      84              0.0000000000
     12076       112  DOPC      H13Y          -11.9955334822       15.1486693557       -6.7435398296  MEMB      84              0.0000000000
     12077       112  DOPC      C314          -10.4832446320       16.3655612273       -7.5262541046  MEMB      84              0.0000000000
     12078       112  DOPC      H14X           -9.7458935896       15.6942594312       -7.0363682245  MEMB      84              0.0000000000
     12079       112  DOPC      H14Y          -10.1307914660       16.7203868345       -8.5183214829  MEMB      84              0.0000000000
     12080       112  DOPC      C315          -10.8001176687       17.6519718533       -6.7069928204  MEMB      84              0.0000000000
     12081       112  DOPC      H15X          -11.6454740702       18.2069875380       -7.1670482491  MEMB      84              0.0000000000
     12082       112  DOPC      H15Y           -9.8725294654       18.2318224858       -6.9010921135  MEMB      84              0.0000000000
     12083       112  DOPC      C316          -11.0633378736       17.4216628704       -5.2944645045  MEMB      84              0.0000000000
     12084       112  DOPC      H16X          -11.8521878356       16.6394610224       -5.3084964092  MEMB      84              0.0000000000
     12085       112  DOPC      H16Y          -10.1757522957       17.0351424355       -4.7493826176  MEMB      84              0.0000000000
     12086       112  DOPC      C317          -11.5951320608       18.6702899279       -4.5534629393  MEMB      84              0.0000000000
     12087       112  DOPC      H17X          -11.0328222509       19.6256002535       -4.6276962643  MEMB      84              0.0000000000
     12088       112  DOPC      H17Y          -12.5307418544       18.9962796542       -5.0561418472  MEMB      84              0.0000000000
     12089       112  DOPC      C318          -11.8319323313       18.3608325668       -3.0578062547  MEMB      84              0.0000000000
     12090       112  DOPC      H18X          -12.5136042562       17.5064868763       -2.8584627888  MEMB      84              0.0000000000
     12091       112  DOPC      H18Y          -10.8402122649       18.1859010495       -2.5885390787  MEMB      84              0.0000000000
     12092       112  DOPC      H18Z          -12.1541360963       19.3274557168       -2.6149219149  MEMB      84              0.0000000000
     12093       113  DOPC      N               4.3005815296      -23.6041267662      -19.5388917378  MEMB      85              0.0000000000
     12094       113  DOPC      C12             3.0162079570      -22.9372630881      -19.1315334350  MEMB      85              0.0000000000
     12095       113  DOPC      H12A            2.6299741069      -23.5477614887      -18.3287165260  MEMB      85              0.0000000000
     12096       113  DOPC      H12B            2.3714334149      -22.9481270064      -19.9978750392  MEMB      85              0.0000000000
     12097       113  DOPC      C13             5.2475163022      -23.4975668425      -18.3944088393  MEMB      85              0.0000000000
     12098       113  DOPC      H13A            4.9773884368      -24.2948073759      -17.7177711952  MEMB      85              0.0000000000
     12099       113  DOPC      H13B            6.2884396779      -23.6162337203      -18.6566999158  MEMB      85              0.0000000000
     12100       113  DOPC      H13C            5.1128267766      -22.5524941893      -17.8893382190  MEMB      85              0.0000000000
     12101       113  DOPC      C14             4.8748656996      -22.9984179654      -20.7675883298  MEMB      85              0.0000000000
     12102       113  DOPC      H14A            4.0971323233      -23.0345770243      -21.5160688814  MEMB      85              0.0000000000
     12103       113  DOPC      H14B            5.0392594923      -21.9425288033      -20.6111509890  MEMB      85              0.0000000000
     12104       113  DOPC      H14C            5.7948710726      -23.5316397100      -20.9564393432  MEMB      85              0.0000000000
     12105       113  DOPC      C15             4.0260350226      -25.0679528726      -19.7707750965  MEMB      85              0.0000000000
     12106       113  DOPC      H15A            3.1270989572      -25.2750804228      -20.3323906940  MEMB      85              0.0000000000
     12107       113  DOPC      H15B            3.8566337929      -25.6200116436      -18.8581228058  MEMB      85              0.0000000000
     12108       113  DOPC      H15C            4.8131769849      -25.5770780809      -20.3070576462  MEMB      85              0.0000000000
     12109       113  DOPC      C11             2.9629368959      -21.5177321123      -18.5066602444  MEMB      85              0.0000000000
     12110       113  DOPC      H11A            2.0943062371      -21.0690910251      -19.0344130715  MEMB      85              0.0000000000
     12111       113  DOPC      H11B            2.8387822945      -21.6107142583      -17.4065416328  MEMB      85              0.0000000000
     12112       113  DOPC      P               4.0972317061      -19.0704383848      -18.5839575173  MEMB      85              0.0000000000
     12113       113  DOPC      O13             2.7425578774      -18.6595175634      -18.1697146958  MEMB      85              0.0000000000
     12114       113  DOPC      O14             4.4852751662      -18.4865642741      -19.8776263253  MEMB      85              0.0000000000
     12115       113  DOPC      O12             4.1010507482      -20.7065677783      -18.7798244541  MEMB      85              0.0000000000
     12116       113  DOPC      O11             5.1715429122      -19.0048559448      -17.4790193238  MEMB      85              0.0000000000
     12117       113  DOPC      C1              6.4729870287      -19.4019752968      -17.7764817353  MEMB      85              0.0000000000
     12118       113  DOPC      HA              7.0716259552      -18.5317505433      -18.1209542928  MEMB      85              0.0000000000
     12119       113  DOPC      HB              6.5857161136      -20.1912958445      -18.5501653311  MEMB      85              0.0000000000
     12120       113  DOPC      C2              7.1851770703      -19.7433119791      -16.3911537396  MEMB      85              0.0000000000
     12121       113  DOPC      HS              8.2231665724      -20.0291684900      -16.6653518082  MEMB      85              0.0000000000
     12122       113  DOPC      O21             6.5494068007      -20.8550682132      -15.7355516130  MEMB      85              0.0000000000
     12123       113  DOPC      C21             7.2956353617      -21.5557411927      -14.9193973447  MEMB      85              0.0000000000
     12124       113  DOPC      O22             8.5210926945      -21.5422061309      -14.8040599133  MEMB      85              0.0000000000
     12125       113  DOPC      C22             6.3566229538      -22.3463833644      -14.0211211754  MEMB      85              0.0000000000
     12126       113  DOPC      H2R             5.7879399802      -23.0719771491      -14.6411489371  MEMB      85              0.0000000000
     12127       113  DOPC      H2S             5.5734512496      -21.7063541267      -13.5614198305  MEMB      85              0.0000000000
     12128       113  DOPC      C3              7.3299731673      -18.4979722066      -15.3308015235  MEMB      85              0.0000000000
     12129       113  DOPC      HX              6.3692377212      -18.2598855464      -14.8261997900  MEMB      85              0.0000000000
     12130       113  DOPC      HY              7.6802585869      -17.7290932159      -16.0522214944  MEMB      85              0.0000000000
     12131       113  DOPC      O31             8.3381608811      -18.7915710940      -14.4039817606  MEMB      85              0.0000000000
     12132       113  DOPC      C31             8.4037003359      -17.9724189065      -13.3473861106  MEMB      85              0.0000000000
     12133       113  DOPC      O32             7.8711753318      -16.8894917752      -13.2521001539  MEMB      85              0.0000000000
     12134       113  DOPC      C32             9.1514440651      -18.6928797103      -12.2183963140  MEMB      85              0.0000000000
     12135       113  DOPC      H2X             8.4501910763      -19.0114465499      -11.4177212614  MEMB      85              0.0000000000
     12136       113  DOPC      H2Y             9.5593557134      -19.6612673080      -12.5791655536  MEMB      85              0.0000000000
     12137       113  DOPC      C23             7.2262082197      -23.1000198117      -13.0560131465  MEMB      85              0.0000000000
     12138       113  DOPC      H3R             7.7667280285      -22.3901866654      -12.3939739917  MEMB      85              0.0000000000
     12139       113  DOPC      H3S             7.9868796183      -23.7135008749      -13.5845406321  MEMB      85              0.0000000000
     12140       113  DOPC      C24             6.4722954742      -24.0635328190      -12.1139195623  MEMB      85              0.0000000000
     12141       113  DOPC      H4R             7.2457633453      -24.7697442761      -11.7433335480  MEMB      85              0.0000000000
     12142       113  DOPC      H4S             5.7610154271      -24.6178868741      -12.7628365526  MEMB      85              0.0000000000
     12143       113  DOPC      C25             5.7629286430      -23.4204189256      -10.9179414457  MEMB      85              0.0000000000
     12144       113  DOPC      H5R             5.2672687123      -24.2509116556      -10.3712024581  MEMB      85              0.0000000000
     12145       113  DOPC      H5S             4.9575636946      -22.7205046346      -11.2275035605  MEMB      85              0.0000000000
     12146       113  DOPC      C26             6.6949204572      -22.6690964227       -9.9191753318  MEMB      85              0.0000000000
     12147       113  DOPC      H6R             7.0100630907      -21.7074113059      -10.3776162254  MEMB      85              0.0000000000
     12148       113  DOPC      H6S             7.6466184420      -23.2400114820       -9.8677218673  MEMB      85              0.0000000000
     12149       113  DOPC      C27             6.0971632896      -22.5265067201       -8.5158577710  MEMB      85              0.0000000000
     12150       113  DOPC      H7R             5.0897847437      -22.0665994045       -8.6052705368  MEMB      85              0.0000000000
     12151       113  DOPC      H7S             6.7136185857      -21.8187604266       -7.9213835893  MEMB      85              0.0000000000
     12152       113  DOPC      C28             5.8207184135      -23.8201198953       -7.6919509596  MEMB      85              0.0000000000
     12153       113  DOPC      H8R             5.6726766960      -24.6532356618       -8.4118972465  MEMB      85              0.0000000000
     12154       113  DOPC      H8S             4.7566561144      -23.7030337109       -7.3946572936  MEMB      85              0.0000000000
     12155       113  DOPC      C29             6.8953175404      -24.2098236326       -6.7077184584  MEMB      85              0.0000000000
     12156       113  DOPC      H9R             7.5962436909      -24.9914231524       -7.0360545545  MEMB      85              0.0000000000
     12157       113  DOPC      C210            6.9276478279      -23.7481040070       -5.4496326332  MEMB      85              0.0000000000
     12158       113  DOPC      H10R            7.6747032720      -24.1887308549       -4.7730554880  MEMB      85              0.0000000000
     12159       113  DOPC      C211            5.9738096736      -22.7623556295       -4.8205142333  MEMB      85              0.0000000000
     12160       113  DOPC      H11R            5.3397800030      -23.4213331917       -4.1895811444  MEMB      85              0.0000000000
     12161       113  DOPC      H11S            5.2374528644      -22.4766557218       -5.6018428917  MEMB      85              0.0000000000
     12162       113  DOPC      C212            6.6007298927      -21.6803746856       -4.0558003730  MEMB      85              0.0000000000
     12163       113  DOPC      H12R            7.0933516002      -20.9880922470       -4.7716143612  MEMB      85              0.0000000000
     12164       113  DOPC      H12S            7.2771198321      -22.1372590072       -3.3020940634  MEMB      85              0.0000000000
     12165       113  DOPC      C213            5.4862037245      -20.9929668691       -3.2816859328  MEMB      85              0.0000000000
     12166       113  DOPC      H13R            4.8495344548      -21.7018580771       -2.7103316364  MEMB      85              0.0000000000
     12167       113  DOPC      H13S            4.7036147640      -20.6206950877       -3.9768764770  MEMB      85              0.0000000000
     12168       113  DOPC      C214            5.7832034703      -19.8762374217       -2.3053639199  MEMB      85              0.0000000000
     12169       113  DOPC      H14R            4.8358337211      -19.7243215860       -1.7452455671  MEMB      85              0.0000000000
     12170       113  DOPC      H14S            6.1752935629      -18.9611945236       -2.7986014087  MEMB      85              0.0000000000
     12171       113  DOPC      C215            6.8235457492      -20.2588904758       -1.2698379736  MEMB      85              0.0000000000
     12172       113  DOPC      H15R            7.0673796607      -19.4587166192       -0.5386827324  MEMB      85              0.0000000000
     12173       113  DOPC      H15S            7.8330400426      -20.4248214202       -1.7030925690  MEMB      85              0.0000000000
     12174       113  DOPC      C216            6.4437811181      -21.6085427321       -0.5055864423  MEMB      85              0.0000000000
     12175       113  DOPC      H16R            6.4509886927      -22.5036505883       -1.1636533218  MEMB      85              0.0000000000
     12176       113  DOPC      H16S            5.3417455064      -21.5273122775       -0.3905201875  MEMB      85              0.0000000000
     12177       113  DOPC      C217            7.2952032540      -21.8077009791        0.7696629373  MEMB      85              0.0000000000
     12178       113  DOPC      H17R            7.1428966830      -22.8368828579        1.1594168625  MEMB      85              0.0000000000
     12179       113  DOPC      H17S            6.8214021124      -21.1631624660        1.5406381080  MEMB      85              0.0000000000
     12180       113  DOPC      C218            8.7629983415      -21.3819371109        0.6789859005  MEMB      85              0.0000000000
     12181       113  DOPC      H18R            8.8556518343      -20.2785735266        0.5877441488  MEMB      85              0.0000000000
     12182       113  DOPC      H18S            9.2034774910      -21.7576680114       -0.2692354600  MEMB      85              0.0000000000
     12183       113  DOPC      H18T            9.3799180802      -21.7881704443        1.5088690126  MEMB      85              0.0000000000
     12184       113  DOPC      C33            10.1904497209      -17.7863784990      -11.6046918964  MEMB      85              0.0000000000
     12185       113  DOPC      H3X             9.6121051254      -16.9198668854      -11.2186913956  MEMB      85              0.0000000000
     12186       113  DOPC      H3Y            10.8095649808      -17.3750059362      -12.4303974619  MEMB      85              0.0000000000
     12187       113  DOPC      C34            11.0293342665      -18.3344568380      -10.4530285598  MEMB      85              0.0000000000
     12188       113  DOPC      H4X            11.7114175048      -17.5998779465       -9.9739902894  MEMB      85              0.0000000000
     12189       113  DOPC      H4Y            11.7753146961      -19.0378139478      -10.8809563926  MEMB      85              0.0000000000
     12190       113  DOPC      C35            10.2676105871      -19.0399751043       -9.3383617370  MEMB      85              0.0000000000
     12191       113  DOPC      H5X             9.9598062536      -20.0344282924       -9.7264860620  MEMB      85              0.0000000000
     12192       113  DOPC      H5Y             9.3542424985      -18.4685030009       -9.0672539689  MEMB      85              0.0000000000
     12193       113  DOPC      C36            11.0452279364      -19.1868146431       -8.0478071397  MEMB      85              0.0000000000
     12194       113  DOPC      H6X            12.0171305087      -19.7216701678       -8.1082722424  MEMB      85              0.0000000000
     12195       113  DOPC      H6Y            11.3074340658      -18.1462328764       -7.7601311507  MEMB      85              0.0000000000
     12196       113  DOPC      C37            10.2283447798      -19.7216130808       -6.8629933615  MEMB      85              0.0000000000
     12197       113  DOPC      H7X             9.2352712328      -19.2472588316       -6.7109611236  MEMB      85              0.0000000000
     12198       113  DOPC      H7Y            10.0813951325      -20.7922013708       -7.1210001024  MEMB      85              0.0000000000
     12199       113  DOPC      C38            10.7964304858      -19.4595567638       -5.4961836062  MEMB      85              0.0000000000
     12200       113  DOPC      H8X            11.0256381596      -18.3728532138       -5.5255126346  MEMB      85              0.0000000000
     12201       113  DOPC      H8Y            11.7814749044      -19.9580082312       -5.3714679149  MEMB      85              0.0000000000
     12202       113  DOPC      C39             9.9437456694      -19.7828638629       -4.3022796004  MEMB      85              0.0000000000
     12203       113  DOPC      H9X             9.7360138094      -20.8616923698       -4.3568382973  MEMB      85              0.0000000000
     12204       113  DOPC      C310            9.6803847020      -18.9645141877       -3.2840439576  MEMB      85              0.0000000000
     12205       113  DOPC      H10X            8.9372335294      -19.3443670295       -2.5674984893  MEMB      85              0.0000000000
     12206       113  DOPC      C311           10.1625557754      -17.5417566097       -3.0824763810  MEMB      85              0.0000000000
     12207       113  DOPC      H11X           11.0590057370      -17.2063989056       -3.6465986512  MEMB      85              0.0000000000
     12208       113  DOPC      H11Y           10.6040928495      -17.5669382773       -2.0632953321  MEMB      85              0.0000000000
     12209       113  DOPC      C312            9.0576937450      -16.4503252530       -3.3048233482  MEMB      85              0.0000000000
     12210       113  DOPC      H12X            9.6754778874      -15.5290281535       -3.3670795970  MEMB      85              0.0000000000
     12211       113  DOPC      H12Y            8.4546538590      -16.4469292173       -2.3717366427  MEMB      85              0.0000000000
     12212       113  DOPC      C313            8.1627933650      -16.7735685695       -4.4582332870  MEMB      85              0.0000000000
     12213       113  DOPC      H13X            8.6130747728      -16.7603646490       -5.4738086883  MEMB      85              0.0000000000
     12214       113  DOPC      H13Y            7.8002212180      -17.8223448466       -4.4040944220  MEMB      85              0.0000000000
     12215       113  DOPC      C314            6.9828999458      -15.7866238424       -4.6261089211  MEMB      85              0.0000000000
     12216       113  DOPC      H14X            7.2540677680      -14.7978870669       -4.1981039320  MEMB      85              0.0000000000
     12217       113  DOPC      H14Y            6.9188241291      -15.6967375691       -5.7316114975  MEMB      85              0.0000000000
     12218       113  DOPC      C315            5.6198182825      -16.2025192518       -4.0674403012  MEMB      85              0.0000000000
     12219       113  DOPC      H15X            5.4084938852      -17.2828455109       -4.2176355352  MEMB      85              0.0000000000
     12220       113  DOPC      H15Y            4.7347785573      -15.6324786962       -4.4225172588  MEMB      85              0.0000000000
     12221       113  DOPC      C316            5.6801965201      -16.0257807459       -2.5145764440  MEMB      85              0.0000000000
     12222       113  DOPC      H16X            6.4466373505      -16.7009839882       -2.0775519815  MEMB      85              0.0000000000
     12223       113  DOPC      H16Y            6.1128646764      -15.0134009603       -2.3655580167  MEMB      85              0.0000000000
     12224       113  DOPC      C317            4.3711794390      -16.2964865542       -1.8822409516  MEMB      85              0.0000000000
     12225       113  DOPC      H17X            3.5913807315      -15.5489485138       -2.1418975789  MEMB      85              0.0000000000
     12226       113  DOPC      H17Y            3.9346088000      -17.2682247826       -2.1976008264  MEMB      85              0.0000000000
     12227       113  DOPC      C318            4.5323512972      -16.2252199648       -0.3922432016  MEMB      85              0.0000000000
     12228       113  DOPC      H18X            5.3084651884      -16.9681421421       -0.1093386291  MEMB      85              0.0000000000
     12229       113  DOPC      H18Y            4.8214021084      -15.2387127599        0.0291531139  MEMB      85              0.0000000000
     12230       113  DOPC      H18Z            3.5631163924      -16.4283223834        0.1113983203  MEMB      85              0.0000000000
     12231       114  DOPC      N             -18.8413367825      -10.9562454737      -18.9095533751  MEMB      86              0.0000000000
     12232       114  DOPC      C12           -18.1957217195      -12.1798452255      -18.3910751950  MEMB      86              0.0000000000
     12233       114  DOPC      H12A          -17.6138755067      -11.8764453302      -17.5332853039  MEMB      86              0.0000000000
     12234       114  DOPC      H12B          -17.5212408140      -12.4407584954      -19.1931972875  MEMB      86              0.0000000000
     12235       114  DOPC      C13           -17.7264353651       -9.9818326585      -18.9012286084  MEMB      86              0.0000000000
     12236       114  DOPC      H13A          -17.4254631561       -9.8572533254      -17.8715219442  MEMB      86              0.0000000000
     12237       114  DOPC      H13B          -16.9032196322      -10.4419262635      -19.4275648199  MEMB      86              0.0000000000
     12238       114  DOPC      H13C          -18.0083994748       -9.0528724406      -19.3744400168  MEMB      86              0.0000000000
     12239       114  DOPC      C14           -20.0349028489      -10.4693000512      -18.2191098309  MEMB      86              0.0000000000
     12240       114  DOPC      H14A          -20.8520464985      -11.1211484525      -17.9475035897  MEMB      86              0.0000000000
     12241       114  DOPC      H14B          -19.5941049948      -10.0622055684      -17.3211280333  MEMB      86              0.0000000000
     12242       114  DOPC      H14C          -20.4209704585       -9.7030800707      -18.8750507366  MEMB      86              0.0000000000
     12243       114  DOPC      C15           -19.2551298919      -11.1929604814      -20.3336649288  MEMB      86              0.0000000000
     12244       114  DOPC      H15A          -20.0792467525      -11.8883911249      -20.2736015037  MEMB      86              0.0000000000
     12245       114  DOPC      H15B          -18.4326269001      -11.5960745763      -20.9058431670  MEMB      86              0.0000000000
     12246       114  DOPC      H15C          -19.5997945399      -10.2676975467      -20.7712662344  MEMB      86              0.0000000000
     12247       114  DOPC      C11           -19.0846989669      -13.4314039652      -17.9683239966  MEMB      86              0.0000000000
     12248       114  DOPC      H11A          -18.4620248050      -14.3378501994      -17.8103582708  MEMB      86              0.0000000000
     12249       114  DOPC      H11B          -19.5748153339      -13.1598936400      -17.0089548633  MEMB      86              0.0000000000
     12250       114  DOPC      P             -20.6934231825      -15.0340018550      -19.2971596854  MEMB      86              0.0000000000
     12251       114  DOPC      O13           -20.5638324801      -15.3724270119      -20.7334713153  MEMB      86              0.0000000000
     12252       114  DOPC      O14           -22.0639436085      -14.8950514671      -18.8257339264  MEMB      86              0.0000000000
     12253       114  DOPC      O12           -20.0243533843      -13.6599931946      -18.9200319055  MEMB      86              0.0000000000
     12254       114  DOPC      O11           -19.8855375240      -16.1285288387      -18.5006472300  MEMB      86              0.0000000000
     12255       114  DOPC      C1            -20.4043374545      -17.3629166943      -18.1220434164  MEMB      86              0.0000000000
     12256       114  DOPC      HA            -19.6991460627      -18.0342824284      -18.6571080369  MEMB      86              0.0000000000
     12257       114  DOPC      HB            -21.4544365083      -17.5792829161      -18.4132449416  MEMB      86              0.0000000000
     12258       114  DOPC      C2            -20.1891479627      -17.3732333303      -16.5532972034  MEMB      86              0.0000000000
     12259       114  DOPC      HS            -20.7939371100      -18.2328401583      -16.1932590862  MEMB      86              0.0000000000
     12260       114  DOPC      O21           -20.7906970079      -16.2000096800      -15.9830305263  MEMB      86              0.0000000000
     12261       114  DOPC      C21           -22.1142580346      -16.1692659523      -15.8527096607  MEMB      86              0.0000000000
     12262       114  DOPC      O22           -22.8710110288      -17.1566451465      -15.7942148664  MEMB      86              0.0000000000
     12263       114  DOPC      C22           -22.4094328120      -14.6950906807      -15.5363989068  MEMB      86              0.0000000000
     12264       114  DOPC      H2R           -23.0576677462      -14.3591714301      -16.3738179550  MEMB      86              0.0000000000
     12265       114  DOPC      H2S           -21.4838040788      -14.0811904814      -15.5107323848  MEMB      86              0.0000000000
     12266       114  DOPC      C3            -18.7353644648      -17.5242297903      -16.0560375330  MEMB      86              0.0000000000
     12267       114  DOPC      HX            -18.0706243040      -16.7285492411      -16.4552042219  MEMB      86              0.0000000000
     12268       114  DOPC      HY            -18.2359665120      -18.4930443521      -16.2712598246  MEMB      86              0.0000000000
     12269       114  DOPC      O31           -18.7619462398      -17.5750713544      -14.5969545423  MEMB      86              0.0000000000
     12270       114  DOPC      C31           -18.5757611499      -16.3754130356      -14.0512628646  MEMB      86              0.0000000000
     12271       114  DOPC      O32           -18.1811704152      -15.3652487347      -14.6373735473  MEMB      86              0.0000000000
     12272       114  DOPC      C32           -18.8687901388      -16.5155803533      -12.5409815044  MEMB      86              0.0000000000
     12273       114  DOPC      H2X           -18.2160549226      -17.3476536369      -12.2005236594  MEMB      86              0.0000000000
     12274       114  DOPC      H2Y           -18.3088091476      -15.6843388950      -12.0616280073  MEMB      86              0.0000000000
     12275       114  DOPC      C23           -23.2800355682      -14.7011758979      -14.2435132913  MEMB      86              0.0000000000
     12276       114  DOPC      H3R           -22.9572794823      -15.2791986021      -13.3513027364  MEMB      86              0.0000000000
     12277       114  DOPC      H3S           -24.2575671347      -15.1889728895      -14.4455216459  MEMB      86              0.0000000000
     12278       114  DOPC      C24           -23.7339476828      -13.3272115131      -13.6882353058  MEMB      86              0.0000000000
     12279       114  DOPC      H4R           -24.5371216735      -13.5195365577      -12.9451044336  MEMB      86              0.0000000000
     12280       114  DOPC      H4S           -24.1537645492      -12.7209315778      -14.5191982234  MEMB      86              0.0000000000
     12281       114  DOPC      C25           -22.6950406964      -12.4165430253      -13.0650404548  MEMB      86              0.0000000000
     12282       114  DOPC      H5R           -23.2110480328      -11.4541924705      -12.8602491754  MEMB      86              0.0000000000
     12283       114  DOPC      H5S           -21.7907323322      -12.2427903036      -13.6866170343  MEMB      86              0.0000000000
     12284       114  DOPC      C26           -22.2473914786      -12.9999522490      -11.6679560079  MEMB      86              0.0000000000
     12285       114  DOPC      H6R           -21.7270974579      -13.9669625948      -11.8367931619  MEMB      86              0.0000000000
     12286       114  DOPC      H6S           -23.1298534497      -13.1160653754      -11.0030502194  MEMB      86              0.0000000000
     12287       114  DOPC      C27           -21.4408550627      -11.8516600850      -10.9086263986  MEMB      86              0.0000000000
     12288       114  DOPC      H7R           -22.0406576699      -10.9203426399      -10.8237388466  MEMB      86              0.0000000000
     12289       114  DOPC      H7S           -20.4544821938      -11.6466698677      -11.3769947964  MEMB      86              0.0000000000
     12290       114  DOPC      C28           -21.3184191377      -12.2594857636       -9.4157993046  MEMB      86              0.0000000000
     12291       114  DOPC      H8R           -22.2565839994      -12.2077662170       -8.8229310543  MEMB      86              0.0000000000
     12292       114  DOPC      H8S           -20.8404231545      -11.3742549109       -8.9444109521  MEMB      86              0.0000000000
     12293       114  DOPC      C29           -20.4923861627      -13.5398922979       -9.2739218874  MEMB      86              0.0000000000
     12294       114  DOPC      H9R           -20.6152342306      -14.3082541057      -10.0514361900  MEMB      86              0.0000000000
     12295       114  DOPC      C210          -19.5424353206      -13.8730734259       -8.4193833027  MEMB      86              0.0000000000
     12296       114  DOPC      H10R          -19.0213829352      -14.8407463261       -8.4653552161  MEMB      86              0.0000000000
     12297       114  DOPC      C211          -19.0466425366      -13.0323480737       -7.3139019768  MEMB      86              0.0000000000
     12298       114  DOPC      H11R          -19.4788412694      -12.0091005549       -7.2917702872  MEMB      86              0.0000000000
     12299       114  DOPC      H11S          -17.9384175657      -12.9566068667       -7.3344434087  MEMB      86              0.0000000000
     12300       114  DOPC      C212          -19.4060253528      -13.5275808909       -5.8994459492  MEMB      86              0.0000000000
     12301       114  DOPC      H12R          -18.8971487516      -12.8995660487       -5.1372368218  MEMB      86              0.0000000000
     12302       114  DOPC      H12S          -19.0602064975      -14.5693273780       -5.7277061443  MEMB      86              0.0000000000
     12303       114  DOPC      C213          -20.9847733126      -13.5056965148       -5.5873164581  MEMB      86              0.0000000000
     12304       114  DOPC      H13R          -21.4690001931      -14.4409915976       -5.9409669333  MEMB      86              0.0000000000
     12305       114  DOPC      H13S          -21.4190408172      -12.6876360596       -6.2009205720  MEMB      86              0.0000000000
     12306       114  DOPC      C214          -21.4121243460      -13.2236598098       -4.1090359077  MEMB      86              0.0000000000
     12307       114  DOPC      H14R          -22.4958256195      -13.4023893774       -4.2762736858  MEMB      86              0.0000000000
     12308       114  DOPC      H14S          -21.3637408558      -12.1554605864       -3.8074878111  MEMB      86              0.0000000000
     12309       114  DOPC      C215          -20.9257996658      -14.2055062074       -3.0719547734  MEMB      86              0.0000000000
     12310       114  DOPC      H15R          -19.8344446929      -14.0289866318       -2.9619257749  MEMB      86              0.0000000000
     12311       114  DOPC      H15S          -21.2857209247      -15.1747100886       -3.4786753654  MEMB      86              0.0000000000
     12312       114  DOPC      C216          -21.7086351508      -14.2005249017       -1.7150174726  MEMB      86              0.0000000000
     12313       114  DOPC      H16R          -22.7052886233      -14.6826658079       -1.8074459800  MEMB      86              0.0000000000
     12314       114  DOPC      H16S          -21.8365848936      -13.2250570641       -1.1988664488  MEMB      86              0.0000000000
     12315       114  DOPC      C217          -20.9653575864      -14.9772026495       -0.6002847441  MEMB      86              0.0000000000
     12316       114  DOPC      H17R          -21.5338353805      -15.0806210052        0.3486401632  MEMB      86              0.0000000000
     12317       114  DOPC      H17S          -19.9974296347      -14.4780533436       -0.3805430181  MEMB      86              0.0000000000
     12318       114  DOPC      C218          -20.6262408295      -16.4374093601       -0.9969947932  MEMB      86              0.0000000000
     12319       114  DOPC      H18R          -20.0256027179      -16.9167536829       -0.1946336174  MEMB      86              0.0000000000
     12320       114  DOPC      H18S          -20.0453132630      -16.4388261627       -1.9440130856  MEMB      86              0.0000000000
     12321       114  DOPC      H18T          -21.5770055889      -16.9817296886       -1.1816103003  MEMB      86              0.0000000000
     12322       114  DOPC      C33           -20.3542162055      -16.6022731489      -12.3693449592  MEMB      86              0.0000000000
     12323       114  DOPC      H3X           -20.8473645626      -17.3187625139      -13.0605530490  MEMB      86              0.0000000000
     12324       114  DOPC      H3Y           -20.7898394436      -15.6422376888      -12.7198947240  MEMB      86              0.0000000000
     12325       114  DOPC      C34           -20.8341299111      -16.9548123392      -10.9247769917  MEMB      86              0.0000000000
     12326       114  DOPC      H4X           -20.2073583859      -16.4658077265      -10.1486628014  MEMB      86              0.0000000000
     12327       114  DOPC      H4Y           -20.6278298365      -18.0230352504      -10.6996966103  MEMB      86              0.0000000000
     12328       114  DOPC      C35           -22.3534736193      -16.7991516619      -10.5109692237  MEMB      86              0.0000000000
     12329       114  DOPC      H5X           -22.9409648867      -17.4172385885      -11.2231093474  MEMB      86              0.0000000000
     12330       114  DOPC      H5Y           -22.6151167837      -15.7225729451      -10.5936875583  MEMB      86              0.0000000000
     12331       114  DOPC      C36           -22.6537754333      -17.3035203745       -9.0763131608  MEMB      86              0.0000000000
     12332       114  DOPC      H6X           -22.2051714553      -18.3042517197       -8.8985141390  MEMB      86              0.0000000000
     12333       114  DOPC      H6Y           -22.1625404408      -16.6076827920       -8.3629969910  MEMB      86              0.0000000000
     12334       114  DOPC      C37           -24.1350352582      -17.2287407672       -8.8242363324  MEMB      86              0.0000000000
     12335       114  DOPC      H7X           -24.3998307516      -16.2783089014       -9.3350038808  MEMB      86              0.0000000000
     12336       114  DOPC      H7Y           -24.8060028974      -17.9944305807       -9.2690305677  MEMB      86              0.0000000000
     12337       114  DOPC      C38           -24.4156360527      -16.9894183902       -7.2874705073  MEMB      86              0.0000000000
     12338       114  DOPC      H8X           -25.4841003369      -16.6851415130       -7.2984347873  MEMB      86              0.0000000000
     12339       114  DOPC      H8Y           -23.7966317345      -16.1965266792       -6.8157956038  MEMB      86              0.0000000000
     12340       114  DOPC      C39           -24.2927434185      -18.2715303061       -6.5102987610  MEMB      86              0.0000000000
     12341       114  DOPC      H9X           -25.0514038200      -19.0584782967       -6.6333726041  MEMB      86              0.0000000000
     12342       114  DOPC      C310          -23.2129866941      -18.5216866759       -5.6043811084  MEMB      86              0.0000000000
     12343       114  DOPC      H10X          -23.4102145261      -19.3993317417       -4.9712618763  MEMB      86              0.0000000000
     12344       114  DOPC      C311          -22.0623337171      -17.6106029254       -5.1738890402  MEMB      86              0.0000000000
     12345       114  DOPC      H11X          -22.0722640551      -17.5035026181       -4.0681082408  MEMB      86              0.0000000000
     12346       114  DOPC      H11Y          -22.0948081945      -16.5762322254       -5.5780463808  MEMB      86              0.0000000000
     12347       114  DOPC      C312          -20.7568450288      -18.2550151273       -5.5788413363  MEMB      86              0.0000000000
     12348       114  DOPC      H12X          -20.0778658558      -17.4199838705       -5.3031038540  MEMB      86              0.0000000000
     12349       114  DOPC      H12Y          -20.4629645308      -18.2520007527       -6.6502636586  MEMB      86              0.0000000000
     12350       114  DOPC      C313          -20.4821063895      -19.6569867529       -5.1571642678  MEMB      86              0.0000000000
     12351       114  DOPC      H13X          -20.7536751876      -19.7090936186       -4.0811276042  MEMB      86              0.0000000000
     12352       114  DOPC      H13Y          -21.1848750775      -20.2957880121       -5.7336794646  MEMB      86              0.0000000000
     12353       114  DOPC      C314          -19.0077194332      -20.1552598609       -5.2754416211  MEMB      86              0.0000000000
     12354       114  DOPC      H14X          -18.9589952601      -21.1130630288       -4.7145858099  MEMB      86              0.0000000000
     12355       114  DOPC      H14Y          -18.6879385317      -20.3061328576       -6.3286740300  MEMB      86              0.0000000000
     12356       114  DOPC      C315          -17.9840805736      -19.1164536177       -4.6777199499  MEMB      86              0.0000000000
     12357       114  DOPC      H15X          -17.7168977235      -18.2656362554       -5.3403242617  MEMB      86              0.0000000000
     12358       114  DOPC      H15Y          -17.0501150168      -19.7178614643       -4.6961081111  MEMB      86              0.0000000000
     12359       114  DOPC      C316          -18.1426026472      -18.5392732110       -3.2427102794  MEMB      86              0.0000000000
     12360       114  DOPC      H16X          -17.5508153839      -17.6090781704       -3.3799912877  MEMB      86              0.0000000000
     12361       114  DOPC      H16Y          -19.2152056582      -18.2969285726       -3.0842400554  MEMB      86              0.0000000000
     12362       114  DOPC      C317          -17.5334935523      -19.4819524811       -2.1517999032  MEMB      86              0.0000000000
     12363       114  DOPC      H17X          -18.1206147309      -20.4207474841       -2.2427586378  MEMB      86              0.0000000000
     12364       114  DOPC      H17Y          -16.4753512983      -19.7765956751       -2.3186567958  MEMB      86              0.0000000000
     12365       114  DOPC      C318          -17.4964682888      -18.8926101464       -0.7039410531  MEMB      86              0.0000000000
     12366       114  DOPC      H18X          -18.5045617871      -18.5881655567       -0.3498478987  MEMB      86              0.0000000000
     12367       114  DOPC      H18Y          -17.1478655410      -19.7099269574       -0.0370161525  MEMB      86              0.0000000000
     12368       114  DOPC      H18Z          -16.9294949795      -17.9372159770       -0.7131379005  MEMB      86              0.0000000000
     12369       115  DOPC      N               7.6917507219       23.8033487150      -20.5177724810  MEMB      87              0.0000000000
     12370       115  DOPC      C12             6.4598631128       22.8732690199      -20.1450469981  MEMB      87              0.0000000000
     12371       115  DOPC      H12A            6.2895487428       22.2641918675      -21.0204999805  MEMB      87              0.0000000000
     12372       115  DOPC      H12B            5.6420054546       23.5653093800      -20.0087067610  MEMB      87              0.0000000000
     12373       115  DOPC      C13             7.4784997167       24.3019632244      -21.9292100459  MEMB      87              0.0000000000
     12374       115  DOPC      H13A            8.2604315531       24.9840719852      -22.2287267977  MEMB      87              0.0000000000
     12375       115  DOPC      H13B            7.5373768340       23.4546539576      -22.5962935586  MEMB      87              0.0000000000
     12376       115  DOPC      H13C            6.5001213235       24.7563367060      -21.8770495945  MEMB      87              0.0000000000
     12377       115  DOPC      C14             8.9408671885       22.9700947812      -20.5079999942  MEMB      87              0.0000000000
     12378       115  DOPC      H14A            9.8716940263       23.4718877306      -20.7274659383  MEMB      87              0.0000000000
     12379       115  DOPC      H14B            9.0821342212       22.5257084453      -19.5338518704  MEMB      87              0.0000000000
     12380       115  DOPC      H14C            8.8914906930       22.2112211134      -21.2748589363  MEMB      87              0.0000000000
     12381       115  DOPC      C15             7.9237464199       24.9040626160      -19.5195776725  MEMB      87              0.0000000000
     12382       115  DOPC      H15A            8.1901645366       24.6415133090      -18.5064196259  MEMB      87              0.0000000000
     12383       115  DOPC      H15B            7.0126993684       25.4827429952      -19.4805614627  MEMB      87              0.0000000000
     12384       115  DOPC      H15C            8.6518627971       25.6036849039      -19.9026897509  MEMB      87              0.0000000000
     12385       115  DOPC      C11             6.3765535183       21.9717983448      -18.8480378525  MEMB      87              0.0000000000
     12386       115  DOPC      H11A            6.1482294151       22.7598636891      -18.0989436632  MEMB      87              0.0000000000
     12387       115  DOPC      H11B            5.3874336472       21.4730188916      -18.9327838222  MEMB      87              0.0000000000
     12388       115  DOPC      P               7.1423628104       19.9459395012      -17.5062709662  MEMB      87              0.0000000000
     12389       115  DOPC      O13             8.3044623543       19.1105852094      -17.3093869074  MEMB      87              0.0000000000
     12390       115  DOPC      O14             5.9279775823       19.2923093664      -18.0357413133  MEMB      87              0.0000000000
     12391       115  DOPC      O12             7.5241541235       21.0972739250      -18.5406782740  MEMB      87              0.0000000000
     12392       115  DOPC      O11             6.7508131703       20.7401989586      -16.1402774951  MEMB      87              0.0000000000
     12393       115  DOPC      C1              5.8637724155       19.9778424680      -15.2169240144  MEMB      87              0.0000000000
     12394       115  DOPC      HA              6.4060034100       19.8607488592      -14.2543254819  MEMB      87              0.0000000000
     12395       115  DOPC      HB              5.8469280488       18.9013637087      -15.4912062885  MEMB      87              0.0000000000
     12396       115  DOPC      C2              4.4895420915       20.6307695571      -15.0255994926  MEMB      87              0.0000000000
     12397       115  DOPC      HS              3.9629316940       20.3782358532      -15.9707075017  MEMB      87              0.0000000000
     12398       115  DOPC      O21             4.6450260183       22.0276379172      -14.9789509694  MEMB      87              0.0000000000
     12399       115  DOPC      C21             3.6854575841       22.7980409541      -15.4504849198  MEMB      87              0.0000000000
     12400       115  DOPC      O22             2.6049834234       22.4253974936      -15.8769695891  MEMB      87              0.0000000000
     12401       115  DOPC      C22             4.1127211493       24.2266657126      -15.4347435740  MEMB      87              0.0000000000
     12402       115  DOPC      H2R             3.3530383840       24.8397125748      -14.9042940880  MEMB      87              0.0000000000
     12403       115  DOPC      H2S             4.3255031357       24.5799385435      -16.4663650719  MEMB      87              0.0000000000
     12404       115  DOPC      C3              3.7456250420       20.1013692909      -13.7452293698  MEMB      87              0.0000000000
     12405       115  DOPC      HX              3.9263155395       19.0068511856      -13.6843872354  MEMB      87              0.0000000000
     12406       115  DOPC      HY              2.6591577370       20.3071783781      -13.8527111867  MEMB      87              0.0000000000
     12407       115  DOPC      O31             4.2265719215       20.7180284483      -12.4906047968  MEMB      87              0.0000000000
     12408       115  DOPC      C31             3.5812890280       20.3874198927      -11.4046369023  MEMB      87              0.0000000000
     12409       115  DOPC      O32             2.8117023526       19.4086689058      -11.2942986785  MEMB      87              0.0000000000
     12410       115  DOPC      C32             3.9281896828       21.4008901169      -10.2880381803  MEMB      87              0.0000000000
     12411       115  DOPC      H2X             3.9280142049       20.9267033736       -9.2833156138  MEMB      87              0.0000000000
     12412       115  DOPC      H2Y             4.9037022044       21.8595941461      -10.5568999044  MEMB      87              0.0000000000
     12413       115  DOPC      C23             5.3021481597       24.4653250052      -14.5111652902  MEMB      87              0.0000000000
     12414       115  DOPC      H3R             5.1391285330       23.9888357990      -13.5208601414  MEMB      87              0.0000000000
     12415       115  DOPC      H3S             5.2698558529       25.5265499890      -14.1839347218  MEMB      87              0.0000000000
     12416       115  DOPC      C24             6.7416770156       24.1790597171      -15.0619968532  MEMB      87              0.0000000000
     12417       115  DOPC      H4R             6.9416452337       25.0583134356      -15.7110319744  MEMB      87              0.0000000000
     12418       115  DOPC      H4S             6.7167386407       23.3138014006      -15.7584357488  MEMB      87              0.0000000000
     12419       115  DOPC      C25             7.8895058971       24.1451710207      -14.0527982868  MEMB      87              0.0000000000
     12420       115  DOPC      H5R             8.0915630069       25.1647403836      -13.6604056142  MEMB      87              0.0000000000
     12421       115  DOPC      H5S             8.8128125455       23.8261153729      -14.5819761190  MEMB      87              0.0000000000
     12422       115  DOPC      C26             7.6171723941       23.3012921174      -12.8334382873  MEMB      87              0.0000000000
     12423       115  DOPC      H6R             7.2715897702       22.3137343736      -13.2071001791  MEMB      87              0.0000000000
     12424       115  DOPC      H6S             6.7905717388       23.7465716327      -12.2394866029  MEMB      87              0.0000000000
     12425       115  DOPC      C27             8.8458387755       23.1431676274      -11.9535094128  MEMB      87              0.0000000000
     12426       115  DOPC      H7R             9.1621324431       24.1536408885      -11.6170230936  MEMB      87              0.0000000000
     12427       115  DOPC      H7S             9.6995999619       22.6540917177      -12.4694717889  MEMB      87              0.0000000000
     12428       115  DOPC      C28             8.5583445593       22.3060026788      -10.7245091063  MEMB      87              0.0000000000
     12429       115  DOPC      H8R             7.7861297027       22.7269218090      -10.0456626890  MEMB      87              0.0000000000
     12430       115  DOPC      H8S             9.5708773002       22.2915304549      -10.2674646976  MEMB      87              0.0000000000
     12431       115  DOPC      C29             8.2332638207       20.8429907587      -11.1343417966  MEMB      87              0.0000000000
     12432       115  DOPC      H9R             8.3302509255       20.5607085817      -12.1930724775  MEMB      87              0.0000000000
     12433       115  DOPC      C210            7.7983327949       19.9632402788      -10.2579672551  MEMB      87              0.0000000000
     12434       115  DOPC      H10R            7.7237040590       18.9323429118      -10.6343724358  MEMB      87              0.0000000000
     12435       115  DOPC      C211            7.6388492367       20.2954176777       -8.7874913966  MEMB      87              0.0000000000
     12436       115  DOPC      H11R            6.5526832457       20.2574480443       -8.5570079788  MEMB      87              0.0000000000
     12437       115  DOPC      H11S            8.0115717600       21.3187433612       -8.5679389466  MEMB      87              0.0000000000
     12438       115  DOPC      C212            8.4553918419       19.3177486349       -7.8956341074  MEMB      87              0.0000000000
     12439       115  DOPC      H12R            9.5267635393       19.3864682487       -8.1815731975  MEMB      87              0.0000000000
     12440       115  DOPC      H12S            7.9390797493       18.3605553329       -8.1226222396  MEMB      87              0.0000000000
     12441       115  DOPC      C213            8.3941611653       19.5456350093       -6.3233050066  MEMB      87              0.0000000000
     12442       115  DOPC      H13R            7.2886751551       19.5515457935       -6.2129105017  MEMB      87              0.0000000000
     12443       115  DOPC      H13S            8.6922405505       20.5835955819       -6.0623304537  MEMB      87              0.0000000000
     12444       115  DOPC      C214            9.2365808068       18.5225834275       -5.5607594231  MEMB      87              0.0000000000
     12445       115  DOPC      H14R           10.3356779620       18.6830082435       -5.5846434958  MEMB      87              0.0000000000
     12446       115  DOPC      H14S            9.2210039888       17.4998562032       -5.9944727058  MEMB      87              0.0000000000
     12447       115  DOPC      C215            8.7497013989       18.4266131026       -4.1557801694  MEMB      87              0.0000000000
     12448       115  DOPC      H15R            7.8176691230       17.8227630528       -4.1241246720  MEMB      87              0.0000000000
     12449       115  DOPC      H15S            8.5133909218       19.4402520272       -3.7671739017  MEMB      87              0.0000000000
     12450       115  DOPC      C216            9.7413726201       17.5586078910       -3.2198872143  MEMB      87              0.0000000000
     12451       115  DOPC      H16R           10.7638674504       17.9691623141       -3.3622607017  MEMB      87              0.0000000000
     12452       115  DOPC      H16S            9.7256428040       16.4583345323       -3.3730936685  MEMB      87              0.0000000000
     12453       115  DOPC      C217            9.0630723571       17.6727485566       -1.8205140381  MEMB      87              0.0000000000
     12454       115  DOPC      H17R            8.2052061849       16.9786279118       -1.6917400860  MEMB      87              0.0000000000
     12455       115  DOPC      H17S            8.5708041697       18.6575141510       -1.6714176994  MEMB      87              0.0000000000
     12456       115  DOPC      C218           10.0732104538       17.4671758428       -0.6409714235  MEMB      87              0.0000000000
     12457       115  DOPC      H18R            9.3788261249       17.4925216378        0.2259253488  MEMB      87              0.0000000000
     12458       115  DOPC      H18S           10.8259767300       18.2790172700       -0.5483553659  MEMB      87              0.0000000000
     12459       115  DOPC      H18T           10.6577474930       16.5249630632       -0.7107794232  MEMB      87              0.0000000000
     12460       115  DOPC      C33             2.7627198356       22.4435954975      -10.2534339303  MEMB      87              0.0000000000
     12461       115  DOPC      H3X             1.8623218227       21.9657506639       -9.8115425049  MEMB      87              0.0000000000
     12462       115  DOPC      H3Y             2.4920217867       22.6880846313      -11.3028475854  MEMB      87              0.0000000000
     12463       115  DOPC      C34             3.1510413937       23.6187299623       -9.4044054245  MEMB      87              0.0000000000
     12464       115  DOPC      H4X             3.1659819895       23.1984857983       -8.3760602492  MEMB      87              0.0000000000
     12465       115  DOPC      H4Y             2.3248054826       24.3602949711       -9.3627303610  MEMB      87              0.0000000000
     12466       115  DOPC      C35             4.2940399183       24.4315541857       -9.8164024138  MEMB      87              0.0000000000
     12467       115  DOPC      H5X             4.2663584399       24.6216957994      -10.9106609178  MEMB      87              0.0000000000
     12468       115  DOPC      H5Y             5.3161590375       24.0210101014       -9.6713260925  MEMB      87              0.0000000000
     12469       115  DOPC      C36             4.3677534426       25.8025513866       -9.1707054677  MEMB      87              0.0000000000
     12470       115  DOPC      H6X             5.1492546865       26.3666753404       -9.7232824789  MEMB      87              0.0000000000
     12471       115  DOPC      H6Y             3.4122120777       26.3658630827       -9.2334857672  MEMB      87              0.0000000000
     12472       115  DOPC      C37             4.6172922480       25.8944531510       -7.6363295626  MEMB      87              0.0000000000
     12473       115  DOPC      H7X             4.1226726087       26.8564715124       -7.3829655436  MEMB      87              0.0000000000
     12474       115  DOPC      H7Y             4.1075673635       25.1188215713       -7.0256762686  MEMB      87              0.0000000000
     12475       115  DOPC      C38             6.1336940654       26.1114396220       -7.1954385632  MEMB      87              0.0000000000
     12476       115  DOPC      H8X             6.1425614033       26.5848321620       -6.1903797406  MEMB      87              0.0000000000
     12477       115  DOPC      H8Y             6.6029604861       26.7876594109       -7.9416530347  MEMB      87              0.0000000000
     12478       115  DOPC      C39             7.0794030521       24.9430116484       -7.2671314787  MEMB      87              0.0000000000
     12479       115  DOPC      H9X             7.5587266341       24.8049959631       -8.2475394871  MEMB      87              0.0000000000
     12480       115  DOPC      C310            7.3476175866       24.0880561657       -6.2735098773  MEMB      87              0.0000000000
     12481       115  DOPC      H10X            8.1591955225       23.3818490039       -6.5028850915  MEMB      87              0.0000000000
     12482       115  DOPC      C311            6.8246102806       23.9707981656       -4.9030710260  MEMB      87              0.0000000000
     12483       115  DOPC      H11X            5.9846694470       23.2436612082       -4.8934606514  MEMB      87              0.0000000000
     12484       115  DOPC      H11Y            6.5861791358       24.8960334243       -4.3361397109  MEMB      87              0.0000000000
     12485       115  DOPC      C312            7.8426322616       23.4306804440       -3.9198097988  MEMB      87              0.0000000000
     12486       115  DOPC      H12X            8.6845980295       24.1481823078       -4.0227931806  MEMB      87              0.0000000000
     12487       115  DOPC      H12Y            8.1238497427       22.4426723403       -4.3429852968  MEMB      87              0.0000000000
     12488       115  DOPC      C313            7.2977396595       23.0760402586       -2.5096719407  MEMB      87              0.0000000000
     12489       115  DOPC      H13X            6.3255741815       22.5897370637       -2.7392889503  MEMB      87              0.0000000000
     12490       115  DOPC      H13Y            8.0275296559       22.2928562826       -2.2124332351  MEMB      87              0.0000000000
     12491       115  DOPC      C314            7.2128508969       24.2607908919       -1.5324199645  MEMB      87              0.0000000000
     12492       115  DOPC      H14X            8.1401618313       24.8656117504       -1.6251946234  MEMB      87              0.0000000000
     12493       115  DOPC      H14Y            6.3259959215       24.8982322951       -1.7360810180  MEMB      87              0.0000000000
     12494       115  DOPC      C315            7.0539548077       23.8836965222       -0.0793104812  MEMB      87              0.0000000000
     12495       115  DOPC      H15X            7.6925748074       22.9990936231        0.1303633076  MEMB      87              0.0000000000
     12496       115  DOPC      H15Y            6.0395899055       23.4734834357        0.1133293252  MEMB      87              0.0000000000
     12497       115  DOPC      C316            7.2952456082       24.9909476336        0.8760626965  MEMB      87              0.0000000000
     12498       115  DOPC      H16X            6.4650874340       25.7276900540        0.9247338146  MEMB      87              0.0000000000
     12499       115  DOPC      H16Y            7.3852506042       24.5353986606        1.8853679285  MEMB      87              0.0000000000
     12500       115  DOPC      C317            8.6206273105       25.7164280265        0.7275664639  MEMB      87              0.0000000000
     12501       115  DOPC      H17X            8.6056681782       26.3676479000       -0.1724395376  MEMB      87              0.0000000000
     12502       115  DOPC      H17Y            8.6850453476       26.4428148327        1.5657383558  MEMB      87              0.0000000000
     12503       115  DOPC      C318            9.8562254890       24.8673985698        0.7116515111  MEMB      87              0.0000000000
     12504       115  DOPC      H18X           10.7864718259       25.3151799396        0.3012203842  MEMB      87              0.0000000000
     12505       115  DOPC      H18Y           10.0541141451       24.4168213602        1.7077149629  MEMB      87              0.0000000000
     12506       115  DOPC      H18Z            9.7648345197       23.9709571930        0.0617588743  MEMB      87              0.0000000000
     12507       116  DOPC      N              15.0423417543       16.4934416190      -20.8616204704  MEMB      88              0.0000000000
     12508       116  DOPC      C12            16.1177810463       17.4347850211      -20.4693458855  MEMB      88              0.0000000000
     12509       116  DOPC      H12A           16.0416909359       18.3866388862      -20.9739096803  MEMB      88              0.0000000000
     12510       116  DOPC      H12B           17.0677667657       17.0110107481      -20.7597638505  MEMB      88              0.0000000000
     12511       116  DOPC      C13            14.9350601745       16.4798389407      -22.4111252815  MEMB      88              0.0000000000
     12512       116  DOPC      H13A           15.8491701510       15.9889619052      -22.7108628507  MEMB      88              0.0000000000
     12513       116  DOPC      H13B           14.0162375655       15.9905747215      -22.6988500199  MEMB      88              0.0000000000
     12514       116  DOPC      H13C           14.8233523527       17.4898434972      -22.7769289272  MEMB      88              0.0000000000
     12515       116  DOPC      C14            13.6660947973       16.9720623689      -20.3649383266  MEMB      88              0.0000000000
     12516       116  DOPC      H14A           12.8207656844       16.3261580863      -20.5510203768  MEMB      88              0.0000000000
     12517       116  DOPC      H14B           13.7312818192       16.8914580227      -19.2899250412  MEMB      88              0.0000000000
     12518       116  DOPC      H14C           13.4291304344       17.9863655041      -20.6503099831  MEMB      88              0.0000000000
     12519       116  DOPC      C15            15.3548690580       15.1446905362      -20.3124747372  MEMB      88              0.0000000000
     12520       116  DOPC      H15A           14.4241971565       14.6353441892      -20.5145042879  MEMB      88              0.0000000000
     12521       116  DOPC      H15B           15.5136078362       15.2386613807      -19.2483452393  MEMB      88              0.0000000000
     12522       116  DOPC      H15C           16.2525131995       14.7355453556      -20.7520597749  MEMB      88              0.0000000000
     12523       116  DOPC      C11            16.2470673169       17.6699024293      -18.9638586462  MEMB      88              0.0000000000
     12524       116  DOPC      H11A           16.2047356335       16.7048666208      -18.4150099619  MEMB      88              0.0000000000
     12525       116  DOPC      H11B           17.2299676551       18.1082502784      -18.6880346751  MEMB      88              0.0000000000
     12526       116  DOPC      P              15.1913955094       19.2299282191      -17.0913533297  MEMB      88              0.0000000000
     12527       116  DOPC      O13            14.6647623745       20.6107986948      -17.0122516895  MEMB      88              0.0000000000
     12528       116  DOPC      O14            16.5642418504       18.9659591221      -16.6124158039  MEMB      88              0.0000000000
     12529       116  DOPC      O12            15.1541244780       18.5729207732      -18.6257717730  MEMB      88              0.0000000000
     12530       116  DOPC      O11            14.2790003427       18.3192118772      -16.2748440597  MEMB      88              0.0000000000
     12531       116  DOPC      C1             13.2295443213       17.4873339875      -16.7926054314  MEMB      88              0.0000000000
     12532       116  DOPC      HA             13.6666452332       16.7151362065      -17.4611669359  MEMB      88              0.0000000000
     12533       116  DOPC      HB             12.4614503707       18.0065739178      -17.4047676368  MEMB      88              0.0000000000
     12534       116  DOPC      C2             12.4150861221       16.8636476228      -15.7001187732  MEMB      88              0.0000000000
     12535       116  DOPC      HS             11.4156932398       16.6263696405      -16.1234791431  MEMB      88              0.0000000000
     12536       116  DOPC      O21            12.1874496529       17.8925169449      -14.7353240767  MEMB      88              0.0000000000
     12537       116  DOPC      C21            11.6117658266       17.4981095024      -13.5247094790  MEMB      88              0.0000000000
     12538       116  DOPC      O22            10.7652890408       16.6661084983      -13.3506391438  MEMB      88              0.0000000000
     12539       116  DOPC      C22            12.2371394177       18.3024171173      -12.3079961534  MEMB      88              0.0000000000
     12540       116  DOPC      H2R            11.7897432552       19.3189816727      -12.2805294738  MEMB      88              0.0000000000
     12541       116  DOPC      H2S            13.3184606334       18.4132813653      -12.5377235212  MEMB      88              0.0000000000
     12542       116  DOPC      C3             12.9537891457       15.5918968696      -15.0500830193  MEMB      88              0.0000000000
     12543       116  DOPC      HX             13.0821082504       14.8421298928      -15.8598388389  MEMB      88              0.0000000000
     12544       116  DOPC      HY             12.2341775698       15.1530875607      -14.3262553105  MEMB      88              0.0000000000
     12545       116  DOPC      O31            14.2504537683       15.7872873367      -14.3361603110  MEMB      88              0.0000000000
     12546       116  DOPC      C31            15.3638162761       15.4154779372      -15.0279459738  MEMB      88              0.0000000000
     12547       116  DOPC      O32            15.4680931601       15.2209560114      -16.2372561296  MEMB      88              0.0000000000
     12548       116  DOPC      C32            16.5247053509       15.2019735816      -14.1069758086  MEMB      88              0.0000000000
     12549       116  DOPC      H2X            16.3982756896       14.8042138629      -13.0773525707  MEMB      88              0.0000000000
     12550       116  DOPC      H2Y            17.1996662133       14.4872968785      -14.6246494643  MEMB      88              0.0000000000
     12551       116  DOPC      C23            11.9353838095       17.6483294565      -10.9001321292  MEMB      88              0.0000000000
     12552       116  DOPC      H3R            12.3129135133       16.6084663734      -10.7977743320  MEMB      88              0.0000000000
     12553       116  DOPC      H3S            10.8245320397       17.6476104987      -10.9182659700  MEMB      88              0.0000000000
     12554       116  DOPC      C24            12.4434667551       18.4226328611       -9.7345851680  MEMB      88              0.0000000000
     12555       116  DOPC      H4R            12.2281260267       19.5114680217       -9.7834458232  MEMB      88              0.0000000000
     12556       116  DOPC      H4S            13.5507193382       18.3820996434       -9.6529162242  MEMB      88              0.0000000000
     12557       116  DOPC      C25            11.8061534449       18.0002057665       -8.3748151827  MEMB      88              0.0000000000
     12558       116  DOPC      H5R            10.7176225978       18.2188113794       -8.4152242856  MEMB      88              0.0000000000
     12559       116  DOPC      H5S            12.2882648362       18.6380569797       -7.6034296057  MEMB      88              0.0000000000
     12560       116  DOPC      C26            12.0872028551       16.4547862073       -8.0055417632  MEMB      88              0.0000000000
     12561       116  DOPC      H6R            11.7108033130       15.8901751817       -8.8852342249  MEMB      88              0.0000000000
     12562       116  DOPC      H6S            11.3937489581       16.2701662508       -7.1573921235  MEMB      88              0.0000000000
     12563       116  DOPC      C27            13.5291747435       16.1219497379       -7.5820043687  MEMB      88              0.0000000000
     12564       116  DOPC      H7R            13.8175297170       16.6885990623       -6.6709167437  MEMB      88              0.0000000000
     12565       116  DOPC      H7S            14.1663659465       16.4816224590       -8.4180331975  MEMB      88              0.0000000000
     12566       116  DOPC      C28            13.7770948954       14.5892188971       -7.3101415926  MEMB      88              0.0000000000
     12567       116  DOPC      H8R            14.8774324010       14.4394045771       -7.3438209366  MEMB      88              0.0000000000
     12568       116  DOPC      H8S            13.5391051744       14.1571055169       -8.3056112090  MEMB      88              0.0000000000
     12569       116  DOPC      C29            13.1770578181       14.1002909590       -6.0711266812  MEMB      88              0.0000000000
     12570       116  DOPC      H9R            12.1216843992       14.3711700568       -5.9200931586  MEMB      88              0.0000000000
     12571       116  DOPC      C210           13.6318097443       13.2720197730       -5.0734801468  MEMB      88              0.0000000000
     12572       116  DOPC      H10R           12.9690374696       12.9860209966       -4.2434581075  MEMB      88              0.0000000000
     12573       116  DOPC      C211           14.9270946613       12.6070037581       -4.8820952617  MEMB      88              0.0000000000
     12574       116  DOPC      H11R           15.5528907356       12.9272916108       -5.7423944266  MEMB      88              0.0000000000
     12575       116  DOPC      H11S           14.7177861950       11.5168437149       -4.9275020016  MEMB      88              0.0000000000
     12576       116  DOPC      C212           15.7546453024       12.9590432905       -3.6325250365  MEMB      88              0.0000000000
     12577       116  DOPC      H12R           16.4281258567       12.0982494652       -3.4330776600  MEMB      88              0.0000000000
     12578       116  DOPC      H12S           14.9896638132       13.1026382870       -2.8397414835  MEMB      88              0.0000000000
     12579       116  DOPC      C213           16.6003703294       14.1533126804       -3.7645441377  MEMB      88              0.0000000000
     12580       116  DOPC      H13R           15.8817290861       14.9881426702       -3.9092322767  MEMB      88              0.0000000000
     12581       116  DOPC      H13S           16.9716632237       14.0645505245       -4.8078963370  MEMB      88              0.0000000000
     12582       116  DOPC      C214           17.5441525324       14.2957147852       -2.6308509369  MEMB      88              0.0000000000
     12583       116  DOPC      H14R           18.0057530439       13.3064555606       -2.4244236309  MEMB      88              0.0000000000
     12584       116  DOPC      H14S           16.9872388119       14.5321937184       -1.6990545163  MEMB      88              0.0000000000
     12585       116  DOPC      C215           18.5732620228       15.5208522709       -2.8445192018  MEMB      88              0.0000000000
     12586       116  DOPC      H15R           19.0644525487       15.3239428216       -3.8213905648  MEMB      88              0.0000000000
     12587       116  DOPC      H15S           19.2892088297       15.5523252812       -1.9955480518  MEMB      88              0.0000000000
     12588       116  DOPC      C216           17.9760583954       16.9297336206       -2.7640474380  MEMB      88              0.0000000000
     12589       116  DOPC      H16R           16.9086415978       16.9564536026       -3.0710142690  MEMB      88              0.0000000000
     12590       116  DOPC      H16S           18.6446056230       17.5747721686       -3.3733833687  MEMB      88              0.0000000000
     12591       116  DOPC      C217           18.0009495248       17.5223301030       -1.2711112982  MEMB      88              0.0000000000
     12592       116  DOPC      H17R           19.0256591884       17.6439180230       -0.8593995970  MEMB      88              0.0000000000
     12593       116  DOPC      H17S           17.6424868782       16.6657217362       -0.6611551696  MEMB      88              0.0000000000
     12594       116  DOPC      C218           17.2058580005       18.7991226952       -0.8210776989  MEMB      88              0.0000000000
     12595       116  DOPC      H18R           16.9882492108       18.8463454736        0.2673784643  MEMB      88              0.0000000000
     12596       116  DOPC      H18S           16.1970836929       18.8827613725       -1.2790071565  MEMB      88              0.0000000000
     12597       116  DOPC      H18T           17.7510807988       19.7127143207       -1.1410839909  MEMB      88              0.0000000000
     12598       116  DOPC      C33            17.3201364713       16.5441789342      -14.0189839888  MEMB      88              0.0000000000
     12599       116  DOPC      H3X            17.4768675125       16.8765251548      -15.0674602835  MEMB      88              0.0000000000
     12600       116  DOPC      H3Y            18.3607767142       16.3707263182      -13.6706983835  MEMB      88              0.0000000000
     12601       116  DOPC      C34            16.7168563495       17.7321486460      -13.3171530199  MEMB      88              0.0000000000
     12602       116  DOPC      H4X            15.8286994312       18.1240132712      -13.8574681714  MEMB      88              0.0000000000
     12603       116  DOPC      H4Y            17.4998056741       18.5019641793      -13.1477568600  MEMB      88              0.0000000000
     12604       116  DOPC      C35            16.1644283919       17.3360482776      -11.9278158520  MEMB      88              0.0000000000
     12605       116  DOPC      H5X            15.4202858172       16.5112555403      -11.9448401160  MEMB      88              0.0000000000
     12606       116  DOPC      H5Y            15.5481598169       18.2258194875      -11.6771341884  MEMB      88              0.0000000000
     12607       116  DOPC      C36            17.2920066981       17.3196451620      -10.8749678226  MEMB      88              0.0000000000
     12608       116  DOPC      H6X            18.0588231277       16.5835042352      -11.1980934594  MEMB      88              0.0000000000
     12609       116  DOPC      H6Y            17.7993594803       18.3079081491      -10.8591463454  MEMB      88              0.0000000000
     12610       116  DOPC      C37            16.9062166019       16.6891145736       -9.4946304144  MEMB      88              0.0000000000
     12611       116  DOPC      H7X            16.2956383526       17.4670335126       -8.9883134408  MEMB      88              0.0000000000
     12612       116  DOPC      H7Y            16.2843772332       15.7862906345       -9.6750353385  MEMB      88              0.0000000000
     12613       116  DOPC      C38            18.0730400807       16.4783251346       -8.5822170384  MEMB      88              0.0000000000
     12614       116  DOPC      H8X            18.8797180978       17.2243249243       -8.7467652327  MEMB      88              0.0000000000
     12615       116  DOPC      H8Y            18.6588527088       15.6300037907       -8.9963373349  MEMB      88              0.0000000000
     12616       116  DOPC      C39            17.5675840972       16.1628787898       -7.1382237215  MEMB      88              0.0000000000
     12617       116  DOPC      H9X            17.4443485035       15.0838324224       -6.9636620785  MEMB      88              0.0000000000
     12618       116  DOPC      C310           17.2637520475       17.1092017299       -6.2033840088  MEMB      88              0.0000000000
     12619       116  DOPC      H10X           16.8125081692       16.7216426616       -5.2780853536  MEMB      88              0.0000000000
     12620       116  DOPC      C311           17.3248449435       18.6043538921       -6.2443810542  MEMB      88              0.0000000000
     12621       116  DOPC      H11X           17.7020786605       18.8481709420       -7.2605353629  MEMB      88              0.0000000000
     12622       116  DOPC      H11Y           18.0557771192       18.9157675449       -5.4677986094  MEMB      88              0.0000000000
     12623       116  DOPC      C312           16.0112307266       19.4864424596       -5.9768691843  MEMB      88              0.0000000000
     12624       116  DOPC      H12X           15.2936221885       19.3672520394       -6.8166032109  MEMB      88              0.0000000000
     12625       116  DOPC      H12Y           16.3801262389       20.5300910134       -5.8818178793  MEMB      88              0.0000000000
     12626       116  DOPC      C313           15.3342672457       19.2434509956       -4.6540211005  MEMB      88              0.0000000000
     12627       116  DOPC      H13X           15.2045696252       18.1406282528       -4.6182226249  MEMB      88              0.0000000000
     12628       116  DOPC      H13Y           16.0411833550       19.4285509044       -3.8171649967  MEMB      88              0.0000000000
     12629       116  DOPC      C314           13.9130093119       19.9565470129       -4.4947454119  MEMB      88              0.0000000000
     12630       116  DOPC      H14X           14.0874869214       21.0170388674       -4.7762336788  MEMB      88              0.0000000000
     12631       116  DOPC      H14Y           13.2467241009       19.5736617218       -5.2971072362  MEMB      88              0.0000000000
     12632       116  DOPC      C315           13.3520536372       19.9274016097       -3.0157272427  MEMB      88              0.0000000000
     12633       116  DOPC      H15X           12.4486179003       20.5720312556       -2.9649577979  MEMB      88              0.0000000000
     12634       116  DOPC      H15Y           14.2277338584       20.2808034050       -2.4303962105  MEMB      88              0.0000000000
     12635       116  DOPC      C316           12.9038713803       18.5520215814       -2.6000231237  MEMB      88              0.0000000000
     12636       116  DOPC      H16X           12.0358127919       18.2812394115       -3.2383597520  MEMB      88              0.0000000000
     12637       116  DOPC      H16Y           13.6509268922       17.7329316221       -2.6729668806  MEMB      88              0.0000000000
     12638       116  DOPC      C317           12.3334862579       18.5042095218       -1.1662334520  MEMB      88              0.0000000000
     12639       116  DOPC      H17X           12.8774661577       19.1051073345       -0.4064111202  MEMB      88              0.0000000000
     12640       116  DOPC      H17Y           11.3340395383       18.9881779861       -1.2009039252  MEMB      88              0.0000000000
     12641       116  DOPC      C318           12.1237661708       17.0591844486       -0.6876947056  MEMB      88              0.0000000000
     12642       116  DOPC      H18X           11.7094388722       16.8998044306        0.3307609412  MEMB      88              0.0000000000
     12643       116  DOPC      H18Y           11.3943339462       16.5824319340       -1.3768659170  MEMB      88              0.0000000000
     12644       116  DOPC      H18Z           13.1105799032       16.5534998625       -0.7569987233  MEMB      88              0.0000000000
     12645       117  DOPC      N             -20.1506706643        4.8597829551      -20.8847197680  MEMB      89              0.0000000000
     12646       117  DOPC      C12           -21.1662829102        5.9007826908      -20.5669862231  MEMB      89              0.0000000000
     12647       117  DOPC      H12A          -22.0936688515        5.5521724636      -20.9969002075  MEMB      89              0.0000000000
     12648       117  DOPC      H12B          -20.9978345834        6.7566460913      -21.2037929457  MEMB      89              0.0000000000
     12649       117  DOPC      C13           -18.8564321864        5.5392629701      -21.2507787151  MEMB      89              0.0000000000
     12650       117  DOPC      H13A          -18.9820590524        6.2961328759      -22.0108879417  MEMB      89              0.0000000000
     12651       117  DOPC      H13B          -18.2558950575        5.9668068578      -20.4614998638  MEMB      89              0.0000000000
     12652       117  DOPC      H13C          -18.1828243232        4.8150809540      -21.6846141199  MEMB      89              0.0000000000
     12653       117  DOPC      C14           -20.6939279572        4.1266907740      -22.0565902209  MEMB      89              0.0000000000
     12654       117  DOPC      H14A          -21.0178316928        4.8780655891      -22.7615174036  MEMB      89              0.0000000000
     12655       117  DOPC      H14B          -20.0148959337        3.4154894672      -22.5032535452  MEMB      89              0.0000000000
     12656       117  DOPC      H14C          -21.6721742497        3.6909023346      -21.9168668527  MEMB      89              0.0000000000
     12657       117  DOPC      C15           -19.8867544535        3.9550742801      -19.7178701847  MEMB      89              0.0000000000
     12658       117  DOPC      H15A          -19.6683257520        4.6714031723      -18.9396916385  MEMB      89              0.0000000000
     12659       117  DOPC      H15B          -19.0593858393        3.3011895729      -19.9508847642  MEMB      89              0.0000000000
     12660       117  DOPC      H15C          -20.7867806404        3.4493453317      -19.4007092512  MEMB      89              0.0000000000
     12661       117  DOPC      C11           -21.2935308680        6.4571009765      -19.1236249451  MEMB      89              0.0000000000
     12662       117  DOPC      H11A          -20.2515545048        6.5851138810      -18.7600056591  MEMB      89              0.0000000000
     12663       117  DOPC      H11B          -21.7385550861        7.4526167867      -19.3362814378  MEMB      89              0.0000000000
     12664       117  DOPC      P             -22.9370684445        6.0750342005      -17.0441495491  MEMB      89              0.0000000000
     12665       117  DOPC      O13           -24.0877121719        6.8197352762      -17.4982625826  MEMB      89              0.0000000000
     12666       117  DOPC      O14           -21.9842480131        6.7455299702      -16.1450604041  MEMB      89              0.0000000000
     12667       117  DOPC      O12           -22.1417882313        5.5895513357      -18.3170402163  MEMB      89              0.0000000000
     12668       117  DOPC      O11           -23.5647151006        4.7213605640      -16.3949171894  MEMB      89              0.0000000000
     12669       117  DOPC      C1            -24.3984629377        3.8831260594      -17.2185305117  MEMB      89              0.0000000000
     12670       117  DOPC      HA            -24.1576824141        4.0478313136      -18.2905463083  MEMB      89              0.0000000000
     12671       117  DOPC      HB            -25.4175436143        4.2927966719      -17.0513015387  MEMB      89              0.0000000000
     12672       117  DOPC      C2            -24.4294325471        2.4939265762      -16.7112802095  MEMB      89              0.0000000000
     12673       117  DOPC      HS            -25.3438386907        1.9656969725      -17.0564692504  MEMB      89              0.0000000000
     12674       117  DOPC      O21           -24.5672991128        2.4946264919      -15.2493936336  MEMB      89              0.0000000000
     12675       117  DOPC      C21           -25.6650894156        3.0561772521      -14.7462285278  MEMB      89              0.0000000000
     12676       117  DOPC      O22           -26.6717173109        3.3646988279      -15.3849260850  MEMB      89              0.0000000000
     12677       117  DOPC      C22           -25.5805463711        3.1880225718      -13.2051097710  MEMB      89              0.0000000000
     12678       117  DOPC      H2R           -24.8162695052        3.9508026750      -12.9436364615  MEMB      89              0.0000000000
     12679       117  DOPC      H2S           -25.2609623977        2.1889028715      -12.8391217992  MEMB      89              0.0000000000
     12680       117  DOPC      C3            -23.2859631875        1.6302534006      -17.0599850634  MEMB      89              0.0000000000
     12681       117  DOPC      HX            -23.2433292729        1.5439101478      -18.1668038013  MEMB      89              0.0000000000
     12682       117  DOPC      HY            -23.2623580089        0.5752576433      -16.7124969611  MEMB      89              0.0000000000
     12683       117  DOPC      O31           -22.1498188145        2.3213797724      -16.6154729192  MEMB      89              0.0000000000
     12684       117  DOPC      C31           -21.0390791662        1.8096141357      -17.0331313133  MEMB      89              0.0000000000
     12685       117  DOPC      O32           -20.9103247417        0.9313139063      -17.8773282521  MEMB      89              0.0000000000
     12686       117  DOPC      C32           -19.8117246205        2.4186878202      -16.3338136835  MEMB      89              0.0000000000
     12687       117  DOPC      H2X           -18.9343263449        2.0282630725      -16.8924384679  MEMB      89              0.0000000000
     12688       117  DOPC      H2Y           -19.8177134311        3.5294601666      -16.3554875758  MEMB      89              0.0000000000
     12689       117  DOPC      C23           -26.8938211108        3.4915530208      -12.5313973015  MEMB      89              0.0000000000
     12690       117  DOPC      H3R           -27.5912404741        2.6789029947      -12.8272470857  MEMB      89              0.0000000000
     12691       117  DOPC      H3S           -27.2477563176        4.4487363912      -12.9705452344  MEMB      89              0.0000000000
     12692       117  DOPC      C24           -26.6499509889        3.6157796804      -11.0290792984  MEMB      89              0.0000000000
     12693       117  DOPC      H4R           -26.0328274147        2.7421077586      -10.7287845365  MEMB      89              0.0000000000
     12694       117  DOPC      H4S           -27.5721365665        3.5939481751      -10.4098714774  MEMB      89              0.0000000000
     12695       117  DOPC      C25           -25.9450648621        4.9519699112      -10.5618413044  MEMB      89              0.0000000000
     12696       117  DOPC      H5R           -26.1528776101        5.8074682887      -11.2395258671  MEMB      89              0.0000000000
     12697       117  DOPC      H5S           -24.8714803063        4.8694754731      -10.8355775004  MEMB      89              0.0000000000
     12698       117  DOPC      C26           -26.1238731074        5.2466232907       -9.1121826792  MEMB      89              0.0000000000
     12699       117  DOPC      H6R           -27.1861034574        5.2643475349       -8.7871082824  MEMB      89              0.0000000000
     12700       117  DOPC      H6S           -25.5886076421        6.1903331723       -8.8729684579  MEMB      89              0.0000000000
     12701       117  DOPC      C27           -25.4638695061        4.1669307599       -8.2343746651  MEMB      89              0.0000000000
     12702       117  DOPC      H7R           -24.3935576147        3.9533088892       -8.4420260413  MEMB      89              0.0000000000
     12703       117  DOPC      H7S           -26.0408660612        3.2372083426       -8.4267602375  MEMB      89              0.0000000000
     12704       117  DOPC      C28           -25.2465607162        4.3531090222       -6.7609072328  MEMB      89              0.0000000000
     12705       117  DOPC      H8R           -24.4652048882        5.1217622894       -6.5793133097  MEMB      89              0.0000000000
     12706       117  DOPC      H8S           -24.6834863133        3.4566806495       -6.4237348244  MEMB      89              0.0000000000
     12707       117  DOPC      C29           -26.5105439314        4.6414706369       -6.1004871514  MEMB      89              0.0000000000
     12708       117  DOPC      H9R           -27.4481429398        4.3457680399       -6.5939123535  MEMB      89              0.0000000000
     12709       117  DOPC      C210          -26.6584267961        5.2895096910       -4.8896007569  MEMB      89              0.0000000000
     12710       117  DOPC      H10R          -27.6585434394        5.3132580351       -4.4322126271  MEMB      89              0.0000000000
     12711       117  DOPC      C211          -25.5803119602        5.8468394061       -4.0323842877  MEMB      89              0.0000000000
     12712       117  DOPC      H11R          -25.8005716677        6.8936227361       -3.7322982109  MEMB      89              0.0000000000
     12713       117  DOPC      H11S          -24.5742429935        5.9380867294       -4.4947914520  MEMB      89              0.0000000000
     12714       117  DOPC      C212          -25.3784556881        5.1828734599       -2.6357314313  MEMB      89              0.0000000000
     12715       117  DOPC      H12R          -26.4019523468        5.3278375942       -2.2285936239  MEMB      89              0.0000000000
     12716       117  DOPC      H12S          -24.7191493544        5.8360083124       -2.0249523951  MEMB      89              0.0000000000
     12717       117  DOPC      C213          -25.1124206772        3.7457887628       -2.6817898214  MEMB      89              0.0000000000
     12718       117  DOPC      H13R          -25.8868366047        3.2018984896       -3.2638424167  MEMB      89              0.0000000000
     12719       117  DOPC      H13S          -25.1436886616        3.2462275799       -1.6899323284  MEMB      89              0.0000000000
     12720       117  DOPC      C214          -23.6994344097        3.3303977434       -3.1840097518  MEMB      89              0.0000000000
     12721       117  DOPC      H14R          -22.8950014735        3.9687061940       -2.7600158441  MEMB      89              0.0000000000
     12722       117  DOPC      H14S          -23.6403424743        3.3725927000       -4.2926353026  MEMB      89              0.0000000000
     12723       117  DOPC      C215          -23.2658939983        1.8606066953       -2.7913496256  MEMB      89              0.0000000000
     12724       117  DOPC      H15R          -24.0838748261        1.2250433726       -3.1929560832  MEMB      89              0.0000000000
     12725       117  DOPC      H15S          -23.2973383641        1.8624284607       -1.6807967738  MEMB      89              0.0000000000
     12726       117  DOPC      C216          -21.9526686611        1.4017782347       -3.3134870831  MEMB      89              0.0000000000
     12727       117  DOPC      H16R          -21.1465938225        2.0435422128       -2.8979110075  MEMB      89              0.0000000000
     12728       117  DOPC      H16S          -21.9528888027        1.3930282940       -4.4244527650  MEMB      89              0.0000000000
     12729       117  DOPC      C217          -21.6282631924       -0.0636475443       -2.9867726874  MEMB      89              0.0000000000
     12730       117  DOPC      H17R          -20.5680438908       -0.2834228195       -3.2356803417  MEMB      89              0.0000000000
     12731       117  DOPC      H17S          -22.1016552636       -0.7119105128       -3.7548720874  MEMB      89              0.0000000000
     12732       117  DOPC      C218          -21.8725144277       -0.5729866616       -1.5811187547  MEMB      89              0.0000000000
     12733       117  DOPC      H18R          -22.9702744222       -0.5986790504       -1.4120490077  MEMB      89              0.0000000000
     12734       117  DOPC      H18S          -21.3920748666        0.0481650001       -0.7951990729  MEMB      89              0.0000000000
     12735       117  DOPC      H18T          -21.4646519488       -1.5523917130       -1.2513675417  MEMB      89              0.0000000000
     12736       117  DOPC      C33           -19.9295764587        1.9781359086      -14.8263933467  MEMB      89              0.0000000000
     12737       117  DOPC      H3X           -19.9928630024        0.8946865888      -14.5887938184  MEMB      89              0.0000000000
     12738       117  DOPC      H3Y           -20.7711269306        2.4759678898      -14.2988734257  MEMB      89              0.0000000000
     12739       117  DOPC      C34           -18.6088570062        2.3901289668      -14.1338594005  MEMB      89              0.0000000000
     12740       117  DOPC      H4X           -18.5745213408        3.4881448833      -14.2996991170  MEMB      89              0.0000000000
     12741       117  DOPC      H4Y           -17.7683210287        1.8489351977      -14.6185550455  MEMB      89              0.0000000000
     12742       117  DOPC      C35           -18.6201316541        1.9743955458      -12.6541892551  MEMB      89              0.0000000000
     12743       117  DOPC      H5X           -17.7256445722        2.4416485707      -12.1895510804  MEMB      89              0.0000000000
     12744       117  DOPC      H5Y           -18.5864257381        0.8739009112      -12.5055393828  MEMB      89              0.0000000000
     12745       117  DOPC      C36           -19.9071233014        2.3972664033      -11.8791426526  MEMB      89              0.0000000000
     12746       117  DOPC      H6X           -20.7899116077        1.9516970705      -12.3855746197  MEMB      89              0.0000000000
     12747       117  DOPC      H6Y           -19.7558804454        1.8694001966      -10.9133248324  MEMB      89              0.0000000000
     12748       117  DOPC      C37           -20.1583735872        3.8893808469      -11.8204303226  MEMB      89              0.0000000000
     12749       117  DOPC      H7X           -19.3097397443        4.4777339407      -11.4105737630  MEMB      89              0.0000000000
     12750       117  DOPC      H7Y           -20.4318729400        4.3087087236      -12.8122385743  MEMB      89              0.0000000000
     12751       117  DOPC      C38           -21.2833907815        4.2338417086      -10.7839352869  MEMB      89              0.0000000000
     12752       117  DOPC      H8X           -22.2600103084        4.0272823187      -11.2716528831  MEMB      89              0.0000000000
     12753       117  DOPC      H8Y           -21.0575947956        5.2953790708      -10.5462889466  MEMB      89              0.0000000000
     12754       117  DOPC      C39           -21.2734024091        3.5595646535       -9.4325542499  MEMB      89              0.0000000000
     12755       117  DOPC      H9X           -21.4514968349        2.4742522503       -9.4130772482  MEMB      89              0.0000000000
     12756       117  DOPC      C310          -21.2923381720        4.1937929169       -8.2323042047  MEMB      89              0.0000000000
     12757       117  DOPC      H10X          -21.3257770001        3.5405968659       -7.3478749253  MEMB      89              0.0000000000
     12758       117  DOPC      C311          -21.2558772759        5.6179060215       -7.8777487290  MEMB      89              0.0000000000
     12759       117  DOPC      H11X          -22.3317769108        5.8702454615       -7.7633547880  MEMB      89              0.0000000000
     12760       117  DOPC      H11Y          -20.7771151893        6.2988201720       -8.6135910846  MEMB      89              0.0000000000
     12761       117  DOPC      C312          -20.5952889160        5.9097088626       -6.4857380691  MEMB      89              0.0000000000
     12762       117  DOPC      H12X          -20.4386976147        7.0022295611       -6.3584617672  MEMB      89              0.0000000000
     12763       117  DOPC      H12Y          -19.6083464402        5.3996853035       -6.4976442207  MEMB      89              0.0000000000
     12764       117  DOPC      C313          -21.5464868344        5.4470615935       -5.3504952148  MEMB      89              0.0000000000
     12765       117  DOPC      H13X          -22.5690256882        5.7603478133       -5.6514721357  MEMB      89              0.0000000000
     12766       117  DOPC      H13Y          -21.6197312480        4.3420812194       -5.2611957038  MEMB      89              0.0000000000
     12767       117  DOPC      C314          -21.4577898791        6.1957734974       -4.0124077668  MEMB      89              0.0000000000
     12768       117  DOPC      H14X          -21.5970605495        7.2694377025       -4.2617467785  MEMB      89              0.0000000000
     12769       117  DOPC      H14Y          -22.3342298507        5.9107656174       -3.3919685543  MEMB      89              0.0000000000
     12770       117  DOPC      C315          -20.2351045646        5.9326788330       -3.1359580627  MEMB      89              0.0000000000
     12771       117  DOPC      H15X          -20.2751667635        6.4369064611       -2.1467810413  MEMB      89              0.0000000000
     12772       117  DOPC      H15Y          -19.4012693224        6.1935833835       -3.8222294768  MEMB      89              0.0000000000
     12773       117  DOPC      C316          -20.0358186067        4.4280890656       -2.6323152268  MEMB      89              0.0000000000
     12774       117  DOPC      H16X          -20.9256140053        4.3175938118       -1.9762844953  MEMB      89              0.0000000000
     12775       117  DOPC      H16Y          -20.0732424125        3.7894430625       -3.5406383839  MEMB      89              0.0000000000
     12776       117  DOPC      C317          -18.9030064836        4.0959483617       -1.6865053785  MEMB      89              0.0000000000
     12777       117  DOPC      H17X          -18.6105935620        3.0279167399       -1.7766378341  MEMB      89              0.0000000000
     12778       117  DOPC      H17Y          -18.1525653163        4.8967549984       -1.8593312980  MEMB      89              0.0000000000
     12779       117  DOPC      C318          -19.3543748580        4.3753661325       -0.2064775267  MEMB      89              0.0000000000
     12780       117  DOPC      H18X          -20.3176406166        3.9505656511        0.1484666056  MEMB      89              0.0000000000
     12781       117  DOPC      H18Y          -18.5029885003        3.9170392003        0.3406967171  MEMB      89              0.0000000000
     12782       117  DOPC      H18Z          -19.4852865378        5.4641610976       -0.0284086935  MEMB      89              0.0000000000
     12783       118  DOPC      N               0.4084820759       26.4486462120      -19.1672113906  MEMB      90              0.0000000000
     12784       118  DOPC      C12             0.6190077278       24.9993528112      -18.7409336845  MEMB      90              0.0000000000
     12785       118  DOPC      H12A            1.3160514673       25.0622945606      -17.9183959868  MEMB      90              0.0000000000
     12786       118  DOPC      H12B            1.0056088340       24.4397373906      -19.5798437687  MEMB      90              0.0000000000
     12787       118  DOPC      C13             1.6572303232       27.1078251041      -19.5668390198  MEMB      90              0.0000000000
     12788       118  DOPC      H13A            1.4920064653       28.1447072586      -19.8197753015  MEMB      90              0.0000000000
     12789       118  DOPC      H13B            2.3496893789       27.1044605598      -18.7380510446  MEMB      90              0.0000000000
     12790       118  DOPC      H13C            2.1525810247       26.6141765436      -20.3898450503  MEMB      90              0.0000000000
     12791       118  DOPC      C14            -0.1443320598       27.2695047005      -18.0079420383  MEMB      90              0.0000000000
     12792       118  DOPC      H14A           -0.0344850615       28.3022648002      -18.3041521615  MEMB      90              0.0000000000
     12793       118  DOPC      H14B           -1.1617161546       26.9595886942      -17.8201080123  MEMB      90              0.0000000000
     12794       118  DOPC      H14C            0.4880443806       27.0278432469      -17.1664554584  MEMB      90              0.0000000000
     12795       118  DOPC      C15            -0.6113783784       26.5079615083      -20.2880070131  MEMB      90              0.0000000000
     12796       118  DOPC      H15A           -0.8679745649       27.5388339584      -20.4825849977  MEMB      90              0.0000000000
     12797       118  DOPC      H15B           -1.4763337498       26.0227447384      -19.8604361643  MEMB      90              0.0000000000
     12798       118  DOPC      H15C           -0.2555671703       26.0391698853      -21.1935636631  MEMB      90              0.0000000000
     12799       118  DOPC      C11            -0.5392662639       23.9884955105      -18.2304454234  MEMB      90              0.0000000000
     12800       118  DOPC      H11A           -0.1584551439       22.9665757029      -18.0183511969  MEMB      90              0.0000000000
     12801       118  DOPC      H11B           -0.8666588002       24.3734461333      -17.2410273079  MEMB      90              0.0000000000
     12802       118  DOPC      P              -2.6389740183       22.7691895817      -19.0628546480  MEMB      90              0.0000000000
     12803       118  DOPC      O13            -1.8947223738       21.5550800039      -18.6205549822  MEMB      90              0.0000000000
     12804       118  DOPC      O14            -3.5897287538       22.6175185849      -20.1878354625  MEMB      90              0.0000000000
     12805       118  DOPC      O12            -1.4912912797       23.8989320156      -19.3135876958  MEMB      90              0.0000000000
     12806       118  DOPC      O11            -3.4504944260       23.3038307685      -17.8137886416  MEMB      90              0.0000000000
     12807       118  DOPC      C1             -4.1943258423       24.5309857800      -17.8327446329  MEMB      90              0.0000000000
     12808       118  DOPC      HA             -5.1313447094       24.4489009901      -18.4239965930  MEMB      90              0.0000000000
     12809       118  DOPC      HB             -3.6713806379       25.3548208447      -18.3639179363  MEMB      90              0.0000000000
     12810       118  DOPC      C2             -4.4785422759       24.9041168845      -16.3564045119  MEMB      90              0.0000000000
     12811       118  DOPC      HS             -5.0238065105       25.8705360764      -16.4115596133  MEMB      90              0.0000000000
     12812       118  DOPC      O21            -3.2354600609       25.1347553415      -15.5542097804  MEMB      90              0.0000000000
     12813       118  DOPC      C21            -2.6591629960       26.3360314401      -15.7960683988  MEMB      90              0.0000000000
     12814       118  DOPC      O22            -2.9169268218       27.1683511089      -16.6227016886  MEMB      90              0.0000000000
     12815       118  DOPC      C22            -1.4865849985       26.4256694482      -14.8264548108  MEMB      90              0.0000000000
     12816       118  DOPC      H2R            -0.9920960653       27.3748556859      -15.1245268675  MEMB      90              0.0000000000
     12817       118  DOPC      H2S            -0.6374098350       25.7410158543      -15.0373380591  MEMB      90              0.0000000000
     12818       118  DOPC      C3             -5.3209046644       23.8852613197      -15.5928385752  MEMB      90              0.0000000000
     12819       118  DOPC      HX             -4.8470564504       22.8820097854      -15.6500680113  MEMB      90              0.0000000000
     12820       118  DOPC      HY             -6.2628479810       23.7811549549      -16.1726884879  MEMB      90              0.0000000000
     12821       118  DOPC      O31            -5.4574551087       24.2735661147      -14.2248672803  MEMB      90              0.0000000000
     12822       118  DOPC      C31            -6.2292135979       23.5931617252      -13.4938621624  MEMB      90              0.0000000000
     12823       118  DOPC      O32            -7.0225256968       22.7745833963      -13.8434877221  MEMB      90              0.0000000000
     12824       118  DOPC      C32            -6.1034502580       24.0574549318      -12.0115874862  MEMB      90              0.0000000000
     12825       118  DOPC      H2X            -5.1438996075       24.5995913451      -11.8713315880  MEMB      90              0.0000000000
     12826       118  DOPC      H2Y            -6.9536027359       24.6540194033      -11.6170339774  MEMB      90              0.0000000000
     12827       118  DOPC      C23            -1.7785454467       26.2960627458      -13.2782201638  MEMB      90              0.0000000000
     12828       118  DOPC      H3R            -2.1704300124       25.2593945856      -13.2003322363  MEMB      90              0.0000000000
     12829       118  DOPC      H3S            -2.4166421850       27.1273206907      -12.9092161806  MEMB      90              0.0000000000
     12830       118  DOPC      C24            -0.4206821681       26.1992628623      -12.5146215639  MEMB      90              0.0000000000
     12831       118  DOPC      H4R            -0.2032935457       27.2821327224      -12.3943870287  MEMB      90              0.0000000000
     12832       118  DOPC      H4S             0.3570940976       25.6225266727      -13.0593784891  MEMB      90              0.0000000000
     12833       118  DOPC      C25            -0.6048244683       25.5083478875      -11.1212042684  MEMB      90              0.0000000000
     12834       118  DOPC      H5R             0.3793617816       25.8084738802      -10.7021305459  MEMB      90              0.0000000000
     12835       118  DOPC      H5S            -0.6569139927       24.4090541448      -11.2733926310  MEMB      90              0.0000000000
     12836       118  DOPC      C26            -1.7994448788       25.8589448423      -10.1362775087  MEMB      90              0.0000000000
     12837       118  DOPC      H6R            -2.7057683128       25.7216194660      -10.7640039155  MEMB      90              0.0000000000
     12838       118  DOPC      H6S            -1.8405679287       26.9582399568       -9.9807762743  MEMB      90              0.0000000000
     12839       118  DOPC      C27            -1.7524847663       25.1496680947       -8.7667977264  MEMB      90              0.0000000000
     12840       118  DOPC      H7R            -0.7325177902       25.2475932880       -8.3373807931  MEMB      90              0.0000000000
     12841       118  DOPC      H7S            -1.8646507193       24.0726954883       -9.0155341109  MEMB      90              0.0000000000
     12842       118  DOPC      C28            -2.7912220331       25.5286053330       -7.7232133067  MEMB      90              0.0000000000
     12843       118  DOPC      H8R            -2.5696375825       26.5238849183       -7.2820331496  MEMB      90              0.0000000000
     12844       118  DOPC      H8S            -2.6035713251       24.7771908268       -6.9266681221  MEMB      90              0.0000000000
     12845       118  DOPC      C29            -4.2080891998       25.5419905402       -8.1776177197  MEMB      90              0.0000000000
     12846       118  DOPC      H9R            -4.3887120175       26.4410053279       -8.7851925012  MEMB      90              0.0000000000
     12847       118  DOPC      C210           -5.1091468914       24.6121856522       -7.9682986258  MEMB      90              0.0000000000
     12848       118  DOPC      H10R           -6.1357678906       24.8339968902       -8.2951765164  MEMB      90              0.0000000000
     12849       118  DOPC      C211           -4.9637138002       23.2658583404       -7.2128435514  MEMB      90              0.0000000000
     12850       118  DOPC      H11R           -3.9641707597       22.7808995292       -7.2198960441  MEMB      90              0.0000000000
     12851       118  DOPC      H11S           -5.6116464979       22.5876952023       -7.8083260028  MEMB      90              0.0000000000
     12852       118  DOPC      C212           -5.3691518456       23.3030194325       -5.7259532763  MEMB      90              0.0000000000
     12853       118  DOPC      H12R           -5.3975266698       22.2490095786       -5.3758393681  MEMB      90              0.0000000000
     12854       118  DOPC      H12S           -6.3404591085       23.8121281779       -5.5479319921  MEMB      90              0.0000000000
     12855       118  DOPC      C213           -4.2988223621       24.0047160506       -4.8662206504  MEMB      90              0.0000000000
     12856       118  DOPC      H13R           -4.4599881925       25.0890588017       -5.0466297723  MEMB      90              0.0000000000
     12857       118  DOPC      H13S           -3.3006858302       23.7452969559       -5.2794359961  MEMB      90              0.0000000000
     12858       118  DOPC      C214           -4.3826736686       23.4704380255       -3.4251108044  MEMB      90              0.0000000000
     12859       118  DOPC      H14R           -3.4613396775       23.8622147844       -2.9434725568  MEMB      90              0.0000000000
     12860       118  DOPC      H14S           -4.1684599147       22.3810550383       -3.4660709984  MEMB      90              0.0000000000
     12861       118  DOPC      C215           -5.6524315124       23.8656777086       -2.6290590657  MEMB      90              0.0000000000
     12862       118  DOPC      H15R           -6.5356365933       23.4119357984       -3.1274448239  MEMB      90              0.0000000000
     12863       118  DOPC      H15S           -5.7407700704       24.9711102436       -2.6964159209  MEMB      90              0.0000000000
     12864       118  DOPC      C216           -5.5233504138       23.4609075305       -1.1808271459  MEMB      90              0.0000000000
     12865       118  DOPC      H16R           -4.6663180121       24.0961045147       -0.8704384405  MEMB      90              0.0000000000
     12866       118  DOPC      H16S           -5.1226550556       22.4296339571       -1.0796409008  MEMB      90              0.0000000000
     12867       118  DOPC      C217           -6.7415533037       23.4978029951       -0.3220196326  MEMB      90              0.0000000000
     12868       118  DOPC      H17R           -7.6312672786       23.2394240875       -0.9351846958  MEMB      90              0.0000000000
     12869       118  DOPC      H17S           -7.0121654875       24.5361046899       -0.0338889793  MEMB      90              0.0000000000
     12870       118  DOPC      C218           -6.7616318897       22.8066667562        1.0507833296  MEMB      90              0.0000000000
     12871       118  DOPC      H18R           -6.8201240623       21.6974085305        1.0296474649  MEMB      90              0.0000000000
     12872       118  DOPC      H18S           -7.6725844713       23.1607475149        1.5790953611  MEMB      90              0.0000000000
     12873       118  DOPC      H18T           -5.9506390934       23.1798767811        1.7120897393  MEMB      90              0.0000000000
     12874       118  DOPC      C33            -6.0758674125       22.7785873542      -11.0920282550  MEMB      90              0.0000000000
     12875       118  DOPC      H3X            -7.0013081151       22.2005015497      -11.3010682562  MEMB      90              0.0000000000
     12876       118  DOPC      H3Y            -6.1353028837       23.0917472479      -10.0277350884  MEMB      90              0.0000000000
     12877       118  DOPC      C34            -4.8951064697       21.8147985425      -11.3842344417  MEMB      90              0.0000000000
     12878       118  DOPC      H4X            -5.2269264798       21.4060107014      -12.3625537882  MEMB      90              0.0000000000
     12879       118  DOPC      H4Y            -4.8585679195       20.9278410876      -10.7161835716  MEMB      90              0.0000000000
     12880       118  DOPC      C35            -3.5050603694       22.4555738278      -11.3745827970  MEMB      90              0.0000000000
     12881       118  DOPC      H5X            -3.4061453221       22.7410523152      -10.3054529799  MEMB      90              0.0000000000
     12882       118  DOPC      H5Y            -3.5503563194       23.3650351588      -12.0110960498  MEMB      90              0.0000000000
     12883       118  DOPC      C36            -2.4228463159       21.5180234157      -11.7921390389  MEMB      90              0.0000000000
     12884       118  DOPC      H6X            -2.6517590002       21.2981271366      -12.8568290474  MEMB      90              0.0000000000
     12885       118  DOPC      H6Y            -1.4771632701       22.0899326491      -11.6784534802  MEMB      90              0.0000000000
     12886       118  DOPC      C37            -2.2173161448       20.2328657875      -10.9772191969  MEMB      90              0.0000000000
     12887       118  DOPC      H7X            -3.0896324133       19.5452564379      -11.0012763279  MEMB      90              0.0000000000
     12888       118  DOPC      H7Y            -1.2611032415       19.7536144910      -11.2777123478  MEMB      90              0.0000000000
     12889       118  DOPC      C38            -2.0296979616       20.5276633172       -9.4506174371  MEMB      90              0.0000000000
     12890       118  DOPC      H8X            -2.8984138334       21.0992987112       -9.0596098892  MEMB      90              0.0000000000
     12891       118  DOPC      H8Y            -1.2337411200       21.3015715998       -9.4077286372  MEMB      90              0.0000000000
     12892       118  DOPC      C39            -1.7480571224       19.2633940894       -8.6130816592  MEMB      90              0.0000000000
     12893       118  DOPC      H9X            -2.1783571180       18.3343487470       -9.0152221976  MEMB      90              0.0000000000
     12894       118  DOPC      C310           -1.0042087269       19.2321045973       -7.5447012059  MEMB      90              0.0000000000
     12895       118  DOPC      H10X           -0.8517895835       18.2538927414       -7.0652534131  MEMB      90              0.0000000000
     12896       118  DOPC      C311           -0.3340888461       20.3608004808       -6.8782277507  MEMB      90              0.0000000000
     12897       118  DOPC      H11X           -0.0046301182       21.1563497511       -7.5802813829  MEMB      90              0.0000000000
     12898       118  DOPC      H11Y            0.6178327685       19.9777425700       -6.4522781208  MEMB      90              0.0000000000
     12899       118  DOPC      C312           -1.1537295593       20.9545091784       -5.7703691865  MEMB      90              0.0000000000
     12900       118  DOPC      H12X           -1.7039876500       20.3431003364       -5.0235648522  MEMB      90              0.0000000000
     12901       118  DOPC      H12Y           -2.0113519425       21.4879252531       -6.2332648539  MEMB      90              0.0000000000
     12902       118  DOPC      C313           -0.3871155146       22.0842940275       -5.0479581461  MEMB      90              0.0000000000
     12903       118  DOPC      H13X            0.6754315453       22.0094553355       -5.3637335034  MEMB      90              0.0000000000
     12904       118  DOPC      H13Y           -0.7188649061       23.0892898434       -5.3859618942  MEMB      90              0.0000000000
     12905       118  DOPC      C314           -0.5073699002       21.9261845905       -3.5212085045  MEMB      90              0.0000000000
     12906       118  DOPC      H14X           -1.4838712639       22.3766039283       -3.2421235319  MEMB      90              0.0000000000
     12907       118  DOPC      H14Y           -0.5313528061       20.8838509337       -3.1374304454  MEMB      90              0.0000000000
     12908       118  DOPC      C315            0.6916561503       22.6767635558       -2.8138650164  MEMB      90              0.0000000000
     12909       118  DOPC      H15X            0.5538411137       23.7499743101       -3.0659504873  MEMB      90              0.0000000000
     12910       118  DOPC      H15Y            1.6641513311       22.3767416166       -3.2594666583  MEMB      90              0.0000000000
     12911       118  DOPC      C316            0.7414015352       22.5062844572       -1.2469918550  MEMB      90              0.0000000000
     12912       118  DOPC      H16X            0.2729637539       21.4992474056       -1.2193604310  MEMB      90              0.0000000000
     12913       118  DOPC      H16Y            1.8046302909       22.4546335638       -0.9288764950  MEMB      90              0.0000000000
     12914       118  DOPC      C317           -0.1056037023       23.3937826966       -0.3502925427  MEMB      90              0.0000000000
     12915       118  DOPC      H17X            0.3296593089       24.4071853064       -0.4840160519  MEMB      90              0.0000000000
     12916       118  DOPC      H17Y           -1.1417420249       23.3157195409       -0.7435424083  MEMB      90              0.0000000000
     12917       118  DOPC      C318           -0.1276781002       23.1342252060        1.1782010227  MEMB      90              0.0000000000
     12918       118  DOPC      H18X           -0.8328914058       23.8571166455        1.6412594938  MEMB      90              0.0000000000
     12919       118  DOPC      H18Y           -0.4242135942       22.0757041544        1.3392021411  MEMB      90              0.0000000000
     12920       118  DOPC      H18Z            0.8595141439       23.4369707429        1.5882219499  MEMB      90              0.0000000000
     12921       119  DOPC      N              19.0090857494      -16.6805804817      -20.2230075286  MEMB      91              0.0000000000
     12922       119  DOPC      C12            19.8871959445      -17.9110215643      -20.4886816607  MEMB      91              0.0000000000
     12923       119  DOPC      H12A           20.4569062440      -17.5324370373      -21.3244472277  MEMB      91              0.0000000000
     12924       119  DOPC      H12B           19.1926224900      -18.5880033808      -20.9637219684  MEMB      91              0.0000000000
     12925       119  DOPC      C13            19.5469744811      -15.7844277170      -19.1791025950  MEMB      91              0.0000000000
     12926       119  DOPC      H13A           18.9279390090      -14.9019449516      -19.1126246110  MEMB      91              0.0000000000
     12927       119  DOPC      H13B           19.4689834686      -16.1207004962      -18.1557561233  MEMB      91              0.0000000000
     12928       119  DOPC      H13C           20.5587719297      -15.5545311863      -19.4787915757  MEMB      91              0.0000000000
     12929       119  DOPC      C14            17.6628618408      -17.0664916192      -19.7357320706  MEMB      91              0.0000000000
     12930       119  DOPC      H14A           17.0754161877      -16.2014770767      -19.4654408222  MEMB      91              0.0000000000
     12931       119  DOPC      H14B           17.1862314076      -17.7340328716      -20.4383073749  MEMB      91              0.0000000000
     12932       119  DOPC      H14C           17.7528981932      -17.6255751667      -18.8161022844  MEMB      91              0.0000000000
     12933       119  DOPC      C15            18.8465258588      -15.8825573184      -21.4822364983  MEMB      91              0.0000000000
     12934       119  DOPC      H15A           18.3336569157      -16.4524456484      -22.2428894838  MEMB      91              0.0000000000
     12935       119  DOPC      H15B           19.8169605747      -15.6600777643      -21.9007569999  MEMB      91              0.0000000000
     12936       119  DOPC      H15C           18.3276358367      -14.9455783830      -21.3435896541  MEMB      91              0.0000000000
     12937       119  DOPC      C11            20.7451049960      -18.6018317503      -19.3940850511  MEMB      91              0.0000000000
     12938       119  DOPC      H11A           21.1668909656      -19.5743534910      -19.7266793675  MEMB      91              0.0000000000
     12939       119  DOPC      H11B           21.5306418754      -17.8586127451      -19.1393728130  MEMB      91              0.0000000000
     12940       119  DOPC      P              19.4183016530      -20.1629007337      -17.7442529016  MEMB      91              0.0000000000
     12941       119  DOPC      O13            19.2091242590      -21.1781434779      -18.7817204137  MEMB      91              0.0000000000
     12942       119  DOPC      O14            18.1992322615      -19.9407120627      -16.9436282327  MEMB      91              0.0000000000
     12943       119  DOPC      O12            19.8995007563      -18.8508032176      -18.2634585385  MEMB      91              0.0000000000
     12944       119  DOPC      O11            20.5609192042      -20.6507025521      -16.7640945095  MEMB      91              0.0000000000
     12945       119  DOPC      C1             21.8881899104      -20.2807984042      -16.8118584681  MEMB      91              0.0000000000
     12946       119  DOPC      HA             22.0699956357      -19.4317250367      -17.5049255694  MEMB      91              0.0000000000
     12947       119  DOPC      HB             22.4017042055      -21.1995643474      -17.1675172528  MEMB      91              0.0000000000
     12948       119  DOPC      C2             22.3439303101      -19.9954714533      -15.3909773892  MEMB      91              0.0000000000
     12949       119  DOPC      HS             23.3914416964      -20.3293899391      -15.2311677197  MEMB      91              0.0000000000
     12950       119  DOPC      O21            21.4812980892      -20.4936032773      -14.3112003800  MEMB      91              0.0000000000
     12951       119  DOPC      C21            21.5386925511      -21.8239843014      -14.2195187733  MEMB      91              0.0000000000
     12952       119  DOPC      O22            22.2472559591      -22.5368950775      -14.8776345711  MEMB      91              0.0000000000
     12953       119  DOPC      C22            20.5820319571      -22.3045021845      -13.1392457523  MEMB      91              0.0000000000
     12954       119  DOPC      H2R            19.7662542464      -22.9109992133      -13.5875637747  MEMB      91              0.0000000000
     12955       119  DOPC      H2S            19.9563323572      -21.4676214384      -12.7618185548  MEMB      91              0.0000000000
     12956       119  DOPC      C3             22.4845922261      -18.5005798591      -15.1476112056  MEMB      91              0.0000000000
     12957       119  DOPC      HX             23.3324694246      -18.0958923959      -15.7406147956  MEMB      91              0.0000000000
     12958       119  DOPC      HY             22.7816887425      -18.4806152695      -14.0772579306  MEMB      91              0.0000000000
     12959       119  DOPC      O31            21.2237692536      -17.7193399971      -15.4029042821  MEMB      91              0.0000000000
     12960       119  DOPC      C31            20.9673821064      -16.8230399328      -14.4599878782  MEMB      91              0.0000000000
     12961       119  DOPC      O32            21.6444788443      -16.6181129163      -13.4984967583  MEMB      91              0.0000000000
     12962       119  DOPC      C32            19.5829659745      -16.1164215621      -14.6724914363  MEMB      91              0.0000000000
     12963       119  DOPC      H2X            19.2797856366      -15.6191738324      -13.7263691651  MEMB      91              0.0000000000
     12964       119  DOPC      H2Y            19.7521342592      -15.3768767960      -15.4841416849  MEMB      91              0.0000000000
     12965       119  DOPC      C23            21.2557984545      -23.1821786133      -12.0610210862  MEMB      91              0.0000000000
     12966       119  DOPC      H3R            22.1460874934      -23.5957010977      -12.5813153928  MEMB      91              0.0000000000
     12967       119  DOPC      H3S            20.6938941497      -24.0810470836      -11.7284249822  MEMB      91              0.0000000000
     12968       119  DOPC      C24            21.6716762400      -22.5100551607      -10.7417391504  MEMB      91              0.0000000000
     12969       119  DOPC      H4R            22.1272945558      -23.2224298785      -10.0211460463  MEMB      91              0.0000000000
     12970       119  DOPC      H4S            20.7116579265      -22.3698772877      -10.2004102434  MEMB      91              0.0000000000
     12971       119  DOPC      C25            22.5475717204      -21.2169720436      -10.8937505110  MEMB      91              0.0000000000
     12972       119  DOPC      H5R            22.1540664879      -20.5625335128      -11.7007108149  MEMB      91              0.0000000000
     12973       119  DOPC      H5S            23.5026626486      -21.6571997495      -11.2519705719  MEMB      91              0.0000000000
     12974       119  DOPC      C26            22.7660310040      -20.5077756276       -9.5307406955  MEMB      91              0.0000000000
     12975       119  DOPC      H6R            23.6668303184      -20.8899671492       -9.0046118734  MEMB      91              0.0000000000
     12976       119  DOPC      H6S            21.9766012429      -20.6490298627       -8.7618657179  MEMB      91              0.0000000000
     12977       119  DOPC      C27            22.9211077838      -18.9741742413       -9.8335710850  MEMB      91              0.0000000000
     12978       119  DOPC      H7R            23.6786082820      -18.9420134261      -10.6456549956  MEMB      91              0.0000000000
     12979       119  DOPC      H7S            23.2696152290      -18.4914529768       -8.8955712186  MEMB      91              0.0000000000
     12980       119  DOPC      C28            21.4858259974      -18.2223024761      -10.1044311869  MEMB      91              0.0000000000
     12981       119  DOPC      H8R            21.1701086083      -18.5198919833      -11.1272133851  MEMB      91              0.0000000000
     12982       119  DOPC      H8S            21.5719404679      -17.1370586658      -10.3261308093  MEMB      91              0.0000000000
     12983       119  DOPC      C29            20.3700141800      -18.3822530521       -9.0683527798  MEMB      91              0.0000000000
     12984       119  DOPC      H9R            19.8990105653      -19.3756603639       -9.0323311727  MEMB      91              0.0000000000
     12985       119  DOPC      C210           19.9711401970      -17.4510609319       -8.2077955034  MEMB      91              0.0000000000
     12986       119  DOPC      H10R           19.1087454396      -17.6986264651       -7.5714102549  MEMB      91              0.0000000000
     12987       119  DOPC      C211           20.6274316757      -16.0741839876       -8.1364317773  MEMB      91              0.0000000000
     12988       119  DOPC      H11R           19.9106979191      -15.3137174388       -7.7591996117  MEMB      91              0.0000000000
     12989       119  DOPC      H11S           21.0700796563      -15.7233152541       -9.0931316224  MEMB      91              0.0000000000
     12990       119  DOPC      C212           21.7729354585      -15.9425636185       -7.1151299550  MEMB      91              0.0000000000
     12991       119  DOPC      H12R           22.2387306642      -14.9608987204       -7.3468410960  MEMB      91              0.0000000000
     12992       119  DOPC      H12S           22.4902594960      -16.7723681684       -7.2917410030  MEMB      91              0.0000000000
     12993       119  DOPC      C213           21.3723968564      -16.0985900958       -5.6327398657  MEMB      91              0.0000000000
     12994       119  DOPC      H13R           21.0243971885      -17.1338873823       -5.4293269584  MEMB      91              0.0000000000
     12995       119  DOPC      H13S           20.5902118870      -15.3201378329       -5.5042104415  MEMB      91              0.0000000000
     12996       119  DOPC      C214           22.5116505253      -15.4737457658       -4.7492663598  MEMB      91              0.0000000000
     12997       119  DOPC      H14R           22.4725167722      -14.3642095147       -4.7078058176  MEMB      91              0.0000000000
     12998       119  DOPC      H14S           23.5015837274      -15.7332006495       -5.1817435118  MEMB      91              0.0000000000
     12999       119  DOPC      C215           22.4934347405      -15.8534576776       -3.2628990531  MEMB      91              0.0000000000
     13000       119  DOPC      H15R           23.1868261725      -15.1998073528       -2.6916978178  MEMB      91              0.0000000000
     13001       119  DOPC      H15S           22.7328289117      -16.9129471983       -3.0294606073  MEMB      91              0.0000000000
     13002       119  DOPC      C216           21.1839578817      -15.6448678917       -2.6377521430  MEMB      91              0.0000000000
     13003       119  DOPC      H16R           20.4410590697      -16.3200203500       -3.1137680587  MEMB      91              0.0000000000
     13004       119  DOPC      H16S           20.8753484835      -14.5937339338       -2.8226802865  MEMB      91              0.0000000000
     13005       119  DOPC      C217           21.1946855046      -15.8246863150       -1.0925338731  MEMB      91              0.0000000000
     13006       119  DOPC      H17R           21.8781562021      -15.0371558192       -0.7091493188  MEMB      91              0.0000000000
     13007       119  DOPC      H17S           21.7879938333      -16.7187494721       -0.8045115650  MEMB      91              0.0000000000
     13008       119  DOPC      C218           19.9114927326      -15.7259679184       -0.2963023039  MEMB      91              0.0000000000
     13009       119  DOPC      H18R           19.9713000942      -15.7997278348        0.8106311903  MEMB      91              0.0000000000
     13010       119  DOPC      H18S           19.1839750072      -16.4631664895       -0.6982691708  MEMB      91              0.0000000000
     13011       119  DOPC      H18T           19.4077407982      -14.7526096746       -0.4783151208  MEMB      91              0.0000000000
     13012       119  DOPC      C33            18.4449511239      -17.2023135150      -14.9690692008  MEMB      91              0.0000000000
     13013       119  DOPC      H3X            18.7066633822      -17.6574230205      -15.9482030006  MEMB      91              0.0000000000
     13014       119  DOPC      H3Y            17.5267753106      -16.5890793902      -15.0924306515  MEMB      91              0.0000000000
     13015       119  DOPC      C34            18.2958878483      -18.1676398716      -13.7995202052  MEMB      91              0.0000000000
     13016       119  DOPC      H4X            18.5084683687      -17.7030988235      -12.8129444533  MEMB      91              0.0000000000
     13017       119  DOPC      H4Y            18.9133088625      -19.0911361695      -13.7831842659  MEMB      91              0.0000000000
     13018       119  DOPC      C35            16.8778180768      -18.7709314934      -13.6496902342  MEMB      91              0.0000000000
     13019       119  DOPC      H5X            16.7934158020      -19.3772362840      -14.5768320098  MEMB      91              0.0000000000
     13020       119  DOPC      H5Y            16.1098036272      -17.9695345780      -13.6023828468  MEMB      91              0.0000000000
     13021       119  DOPC      C36            16.8980995474      -19.6763968288      -12.3951510454  MEMB      91              0.0000000000
     13022       119  DOPC      H6X            15.8664155482      -20.0803498387      -12.3128656557  MEMB      91              0.0000000000
     13023       119  DOPC      H6Y            17.6131882032      -20.5040334079      -12.5900532589  MEMB      91              0.0000000000
     13024       119  DOPC      C37            17.2483555740      -19.0485730479      -11.0442640059  MEMB      91              0.0000000000
     13025       119  DOPC      H7X            18.3437661570      -18.9466520586      -10.8893153741  MEMB      91              0.0000000000
     13026       119  DOPC      H7Y            16.7977121400      -18.0432882827      -10.9005839805  MEMB      91              0.0000000000
     13027       119  DOPC      C38            16.7893729247      -19.7904946817       -9.8078999651  MEMB      91              0.0000000000
     13028       119  DOPC      H8X            15.7195404742      -20.0440057448       -9.9676246305  MEMB      91              0.0000000000
     13029       119  DOPC      H8Y            16.7365089203      -19.1185946826       -8.9246800574  MEMB      91              0.0000000000
     13030       119  DOPC      C39            17.6329935336      -21.0568352735       -9.6261605248  MEMB      91              0.0000000000
     13031       119  DOPC      H9X            17.9147504918      -21.4847829385      -10.5995434206  MEMB      91              0.0000000000
     13032       119  DOPC      C310           18.2506276838      -21.4768943323       -8.5059790837  MEMB      91              0.0000000000
     13033       119  DOPC      H10X           18.9958520838      -22.2755124061       -8.6357873835  MEMB      91              0.0000000000
     13034       119  DOPC      C311           18.2822036310      -20.8081328938       -7.1367008120  MEMB      91              0.0000000000
     13035       119  DOPC      H11X           17.9828342947      -19.7403731627       -7.2044369173  MEMB      91              0.0000000000
     13036       119  DOPC      H11Y           19.3068616045      -20.8960586910       -6.7163844697  MEMB      91              0.0000000000
     13037       119  DOPC      C312           17.2945608386      -21.4958373956       -6.1001953075  MEMB      91              0.0000000000
     13038       119  DOPC      H12X           17.6810498571      -22.4796133412       -5.7579497306  MEMB      91              0.0000000000
     13039       119  DOPC      H12Y           16.2759869694      -21.5102771481       -6.5436133317  MEMB      91              0.0000000000
     13040       119  DOPC      C313           17.2770912975      -20.6650533293       -4.7657794778  MEMB      91              0.0000000000
     13041       119  DOPC      H13X           16.7545662164      -19.6948521737       -4.9071942857  MEMB      91              0.0000000000
     13042       119  DOPC      H13Y           16.7542507404      -21.2759336667       -3.9991089490  MEMB      91              0.0000000000
     13043       119  DOPC      C314           18.6213636224      -20.3418961375       -4.0999065670  MEMB      91              0.0000000000
     13044       119  DOPC      H14X           19.3880606789      -20.9899008994       -4.5759175980  MEMB      91              0.0000000000
     13045       119  DOPC      H14Y           18.9067946340      -19.3346427321       -4.4717814601  MEMB      91              0.0000000000
     13046       119  DOPC      C315           18.6963166990      -20.3654727929       -2.5269315037  MEMB      91              0.0000000000
     13047       119  DOPC      H15X           19.6124212231      -19.8117173741       -2.2295620270  MEMB      91              0.0000000000
     13048       119  DOPC      H15Y           18.8874490714      -21.4343250057       -2.2916786162  MEMB      91              0.0000000000
     13049       119  DOPC      C316           17.5166179466      -19.7757817709       -1.8588749038  MEMB      91              0.0000000000
     13050       119  DOPC      H16X           17.4787828989      -18.7041776429       -2.1496566904  MEMB      91              0.0000000000
     13051       119  DOPC      H16Y           16.5249771183      -20.2257976507       -2.0790001948  MEMB      91              0.0000000000
     13052       119  DOPC      C317           17.5238296194      -19.8083190154       -0.3148170286  MEMB      91              0.0000000000
     13053       119  DOPC      H17X           17.5495515324      -20.8865494685       -0.0482112681  MEMB      91              0.0000000000
     13054       119  DOPC      H17Y           18.3994096941      -19.2288240304        0.0483158605  MEMB      91              0.0000000000
     13055       119  DOPC      C318           16.3010327664      -19.3034051897        0.4741599204  MEMB      91              0.0000000000
     13056       119  DOPC      H18X           16.1429545796      -18.2602356156        0.1261240443  MEMB      91              0.0000000000
     13057       119  DOPC      H18Y           15.4421456071      -19.8787656956        0.0672276615  MEMB      91              0.0000000000
     13058       119  DOPC      H18Z           16.4030824424      -19.5356727661        1.5558062967  MEMB      91              0.0000000000
     13059       120  DOPC      N              13.4047148625      -23.0005964363      -17.5182480681  MEMB      92              0.0000000000
     13060       120  DOPC      C12            11.8776362415      -23.1772765926      -17.9322599368  MEMB      92              0.0000000000
     13061       120  DOPC      H12A           11.6596144332      -22.3089364067      -18.5362895863  MEMB      92              0.0000000000
     13062       120  DOPC      H12B           11.3195497454      -23.0304571715      -17.0193616623  MEMB      92              0.0000000000
     13063       120  DOPC      C13            14.2915544554      -23.1529990440      -18.7187766575  MEMB      92              0.0000000000
     13064       120  DOPC      H13A           14.3344868410      -22.2343050637      -19.2849550121  MEMB      92              0.0000000000
     13065       120  DOPC      H13B           15.2676823619      -23.4661911448      -18.3789459568  MEMB      92              0.0000000000
     13066       120  DOPC      H13C           13.9175141017      -23.9714201702      -19.3160043011  MEMB      92              0.0000000000
     13067       120  DOPC      C14            13.7799001666      -24.0243948639      -16.4970322678  MEMB      92              0.0000000000
     13068       120  DOPC      H14A           13.1329455735      -24.8304882723      -16.8101826727  MEMB      92              0.0000000000
     13069       120  DOPC      H14B           14.8220535713      -24.2645323311      -16.6475325825  MEMB      92              0.0000000000
     13070       120  DOPC      H14C           13.5454754632      -23.6695823741      -15.5042819951  MEMB      92              0.0000000000
     13071       120  DOPC      C15            13.5709082207      -21.6323109598      -16.9387807795  MEMB      92              0.0000000000
     13072       120  DOPC      H15A           14.6156390496      -21.5070524731      -16.6953720616  MEMB      92              0.0000000000
     13073       120  DOPC      H15B           12.9470125072      -21.4367307311      -16.0791863395  MEMB      92              0.0000000000
     13074       120  DOPC      H15C           13.2403831974      -20.8665286934      -17.6248790061  MEMB      92              0.0000000000
     13075       120  DOPC      C11            11.3738148074      -24.4792455175      -18.6533899491  MEMB      92              0.0000000000
     13076       120  DOPC      H11A           11.7139218182      -25.3394575531      -18.0380173275  MEMB      92              0.0000000000
     13077       120  DOPC      H11B           10.2700879353      -24.4327197251      -18.7714716921  MEMB      92              0.0000000000
     13078       120  DOPC      P              12.1286693100      -26.1471581054      -20.6140045801  MEMB      92              0.0000000000
     13079       120  DOPC      O13            13.3036971362      -26.0763056437      -21.5527080422  MEMB      92              0.0000000000
     13080       120  DOPC      O14            10.8017802988      -26.4044139487      -21.1619968082  MEMB      92              0.0000000000
     13081       120  DOPC      O12            12.0467882042      -24.6310083715      -19.9462416036  MEMB      92              0.0000000000
     13082       120  DOPC      O11            12.3727023941      -27.1860341207      -19.4665613055  MEMB      92              0.0000000000
     13083       120  DOPC      C1             13.6066449933      -27.3354104787      -18.8924411786  MEMB      92              0.0000000000
     13084       120  DOPC      HA             14.0803282482      -26.3483214589      -18.7037602320  MEMB      92              0.0000000000
     13085       120  DOPC      HB             14.2125549205      -27.8291242648      -19.6820238820  MEMB      92              0.0000000000
     13086       120  DOPC      C2             13.5411265749      -28.1395983893      -17.5015140992  MEMB      92              0.0000000000
     13087       120  DOPC      HS             13.3832079206      -29.2192176453      -17.7108098853  MEMB      92              0.0000000000
     13088       120  DOPC      O21            12.4442604876      -27.5919503966      -16.7456214298  MEMB      92              0.0000000000
     13089       120  DOPC      C21            11.2171249373      -28.0877760996      -16.8615143668  MEMB      92              0.0000000000
     13090       120  DOPC      O22            10.8208684961      -28.8299474623      -17.7150303203  MEMB      92              0.0000000000
     13091       120  DOPC      C22            10.3060968159      -27.4699809985      -15.7660625843  MEMB      92              0.0000000000
     13092       120  DOPC      H2R            10.2770839296      -28.2033959349      -14.9320473693  MEMB      92              0.0000000000
     13093       120  DOPC      H2S             9.2902736056      -27.3563969259      -16.2014047171  MEMB      92              0.0000000000
     13094       120  DOPC      C3             14.8094719598      -27.9417454324      -16.6001940330  MEMB      92              0.0000000000
     13095       120  DOPC      HX             14.8012347449      -26.8631911649      -16.3337850608  MEMB      92              0.0000000000
     13096       120  DOPC      HY             15.7533826907      -28.1685335677      -17.1404910010  MEMB      92              0.0000000000
     13097       120  DOPC      O31            14.5311330743      -28.7114327557      -15.3978587218  MEMB      92              0.0000000000
     13098       120  DOPC      C31            15.2529112831      -28.3513673336      -14.3624347360  MEMB      92              0.0000000000
     13099       120  DOPC      O32            16.0722264744      -27.4537135160      -14.3582904756  MEMB      92              0.0000000000
     13100       120  DOPC      C32            14.7435435393      -29.0187192984      -13.0314108649  MEMB      92              0.0000000000
     13101       120  DOPC      H2X            13.7169184991      -28.6990907825      -12.7517682643  MEMB      92              0.0000000000
     13102       120  DOPC      H2Y            14.7678715166      -30.1235612237      -13.1456610151  MEMB      92              0.0000000000
     13103       120  DOPC      C23            10.7261853379      -26.1139237271      -15.2190781436  MEMB      92              0.0000000000
     13104       120  DOPC      H3R             9.7481040491      -25.7138246072      -14.8761519071  MEMB      92              0.0000000000
     13105       120  DOPC      H3S            11.0675214958      -25.3647144691      -15.9650649667  MEMB      92              0.0000000000
     13106       120  DOPC      C24            11.7242786193      -26.0262056531      -14.0398618363  MEMB      92              0.0000000000
     13107       120  DOPC      H4R            12.7682882184      -26.2764101457      -14.3258036411  MEMB      92              0.0000000000
     13108       120  DOPC      H4S            11.3282414675      -26.6995425388      -13.2498663626  MEMB      92              0.0000000000
     13109       120  DOPC      C25            11.6354549148      -24.7210042596      -13.3365954137  MEMB      92              0.0000000000
     13110       120  DOPC      H5R            10.5426092941      -24.5256031396      -13.2938394432  MEMB      92              0.0000000000
     13111       120  DOPC      H5S            12.1305073356      -23.9099168809      -13.9122528627  MEMB      92              0.0000000000
     13112       120  DOPC      C26            12.1468930245      -24.7256214125      -11.8636696782  MEMB      92              0.0000000000
     13113       120  DOPC      H6R            11.4552623307      -25.3299631375      -11.2385787328  MEMB      92              0.0000000000
     13114       120  DOPC      H6S            12.1231527032      -23.7160466961      -11.4005106676  MEMB      92              0.0000000000
     13115       120  DOPC      C27            13.6056869246      -25.3160135993      -11.6418339769  MEMB      92              0.0000000000
     13116       120  DOPC      H7R            13.6095565555      -26.3413866648      -12.0695207611  MEMB      92              0.0000000000
     13117       120  DOPC      H7S            13.7849494005      -25.4268901059      -10.5510118272  MEMB      92              0.0000000000
     13118       120  DOPC      C28            14.8392568104      -24.5115320944      -12.2809279612  MEMB      92              0.0000000000
     13119       120  DOPC      H8R            14.6935606786      -24.4642166679      -13.3813165765  MEMB      92              0.0000000000
     13120       120  DOPC      H8S            15.7774596465      -25.1059087127      -12.3094377097  MEMB      92              0.0000000000
     13121       120  DOPC      C29            14.9748869406      -23.1068917764      -11.6600073284  MEMB      92              0.0000000000
     13122       120  DOPC      H9R            14.3196779923      -22.3407259463      -12.1001105396  MEMB      92              0.0000000000
     13123       120  DOPC      C210           15.8216070593      -22.7105458411      -10.6518487989  MEMB      92              0.0000000000
     13124       120  DOPC      H10R           15.7469628968      -21.7236326458      -10.1718161211  MEMB      92              0.0000000000
     13125       120  DOPC      C211           16.7811560476      -23.5954517816       -9.8981526610  MEMB      92              0.0000000000
     13126       120  DOPC      H11R           17.8274607008      -23.2222651654       -9.8808569486  MEMB      92              0.0000000000
     13127       120  DOPC      H11S           16.6936710601      -24.6056292242      -10.3522552247  MEMB      92              0.0000000000
     13128       120  DOPC      C212           16.3100230743      -23.6257309752       -8.4592288544  MEMB      92              0.0000000000
     13129       120  DOPC      H12R           16.4442501706      -22.6277325950       -7.9898639633  MEMB      92              0.0000000000
     13130       120  DOPC      H12S           16.9801033269      -24.3063199963       -7.8916790744  MEMB      92              0.0000000000
     13131       120  DOPC      C213           14.8370072516      -24.2388018411       -8.3198290163  MEMB      92              0.0000000000
     13132       120  DOPC      H13R           14.7447560059      -25.2374011488       -8.7979610064  MEMB      92              0.0000000000
     13133       120  DOPC      H13S           14.1278451287      -23.5575606170       -8.8368588498  MEMB      92              0.0000000000
     13134       120  DOPC      C214           14.2506422493      -24.3979258816       -6.9090881993  MEMB      92              0.0000000000
     13135       120  DOPC      H14R           13.1418831604      -24.3412311040       -6.9510387110  MEMB      92              0.0000000000
     13136       120  DOPC      H14S           14.4800495948      -23.5036282227       -6.2910870469  MEMB      92              0.0000000000
     13137       120  DOPC      C215           14.5698007558      -25.7175268778       -6.1964099931  MEMB      92              0.0000000000
     13138       120  DOPC      H15R           15.6702985886      -25.7758170195       -6.0555990102  MEMB      92              0.0000000000
     13139       120  DOPC      H15S           14.4073539162      -26.5570909227       -6.9056801666  MEMB      92              0.0000000000
     13140       120  DOPC      C216           13.9993777236      -25.9070336830       -4.8014270319  MEMB      92              0.0000000000
     13141       120  DOPC      H16R           14.2991177989      -26.8653866359       -4.3259940255  MEMB      92              0.0000000000
     13142       120  DOPC      H16S           12.9028391816      -26.0181638665       -4.9413366363  MEMB      92              0.0000000000
     13143       120  DOPC      C217           14.2592181797      -24.8104034142       -3.7776264254  MEMB      92              0.0000000000
     13144       120  DOPC      H17R           13.7245625572      -25.0311584993       -2.8290852720  MEMB      92              0.0000000000
     13145       120  DOPC      H17S           13.8226064183      -23.8565573949       -4.1435080003  MEMB      92              0.0000000000
     13146       120  DOPC      C218           15.7045521611      -24.6697868969       -3.3604910234  MEMB      92              0.0000000000
     13147       120  DOPC      H18R           16.0734156363      -25.6675747445       -3.0400530568  MEMB      92              0.0000000000
     13148       120  DOPC      H18S           15.6787436269      -23.8393027603       -2.6229608182  MEMB      92              0.0000000000
     13149       120  DOPC      H18T           16.3798378454      -24.2876954906       -4.1556743994  MEMB      92              0.0000000000
     13150       120  DOPC      C33            15.6899892129      -28.4474897030      -11.9691498310  MEMB      92              0.0000000000
     13151       120  DOPC      H3X            15.5712714892      -27.3558261162      -11.8003376554  MEMB      92              0.0000000000
     13152       120  DOPC      H3Y            16.7739826925      -28.5318326937      -12.1975466331  MEMB      92              0.0000000000
     13153       120  DOPC      C34            15.4863001900      -29.1820270309      -10.6709241113  MEMB      92              0.0000000000
     13154       120  DOPC      H4X            16.0831157730      -30.1185890327      -10.7022921504  MEMB      92              0.0000000000
     13155       120  DOPC      H4Y            14.3929126378      -29.2925922244      -10.5078284388  MEMB      92              0.0000000000
     13156       120  DOPC      C35            15.9693164954      -28.3656312587       -9.5152213232  MEMB      92              0.0000000000
     13157       120  DOPC      H5X            16.0262414784      -29.0525795818       -8.6439112408  MEMB      92              0.0000000000
     13158       120  DOPC      H5Y            15.2354070360      -27.5613083687       -9.2943993551  MEMB      92              0.0000000000
     13159       120  DOPC      C36            17.3683326202      -27.7246966292       -9.7100762361  MEMB      92              0.0000000000
     13160       120  DOPC      H6X            18.1025563161      -28.4059626329      -10.1908187880  MEMB      92              0.0000000000
     13161       120  DOPC      H6Y            17.2839996589      -26.7833698690      -10.2941251044  MEMB      92              0.0000000000
     13162       120  DOPC      C37            18.1574228943      -27.3491430690       -8.5171150894  MEMB      92              0.0000000000
     13163       120  DOPC      H7X            18.8171397813      -26.4942141055       -8.7782486978  MEMB      92              0.0000000000
     13164       120  DOPC      H7Y            17.5385392958      -26.9924499792       -7.6661890229  MEMB      92              0.0000000000
     13165       120  DOPC      C38            19.2454099608      -28.3181974226       -8.0101304532  MEMB      92              0.0000000000
     13166       120  DOPC      H8X            19.8959259530      -27.7669865447       -7.2978691132  MEMB      92              0.0000000000
     13167       120  DOPC      H8Y            19.8220908377      -28.5849158328       -8.9215151677  MEMB      92              0.0000000000
     13168       120  DOPC      C39            18.7980147928      -29.5038112131       -7.2965959445  MEMB      92              0.0000000000
     13169       120  DOPC      H9X            18.8954439280      -30.4135058908       -7.9073035301  MEMB      92              0.0000000000
     13170       120  DOPC      C310           18.4726343965      -29.6560324805       -5.9860760799  MEMB      92              0.0000000000
     13171       120  DOPC      H10X           18.0010383034      -30.5707615365       -5.5976589071  MEMB      92              0.0000000000
     13172       120  DOPC      C311           18.4055318249      -28.5170582542       -4.9690663104  MEMB      92              0.0000000000
     13173       120  DOPC      H11X           18.7623123565      -27.5969756019       -5.4794352335  MEMB      92              0.0000000000
     13174       120  DOPC      H11Y           19.1716307814      -28.6318550192       -4.1726773686  MEMB      92              0.0000000000
     13175       120  DOPC      C312           16.9921579936      -28.4121564890       -4.2812017207  MEMB      92              0.0000000000
     13176       120  DOPC      H12X           16.1511649660      -28.6347804289       -4.9722089771  MEMB      92              0.0000000000
     13177       120  DOPC      H12Y           16.8628809486      -27.3255695612       -4.0890107856  MEMB      92              0.0000000000
     13178       120  DOPC      C313           16.8163883405      -29.2312785510       -2.9371420893  MEMB      92              0.0000000000
     13179       120  DOPC      H13X           17.3141184973      -30.2047153250       -3.1346437359  MEMB      92              0.0000000000
     13180       120  DOPC      H13Y           17.3594153092      -28.6917242225       -2.1319552834  MEMB      92              0.0000000000
     13181       120  DOPC      C314           15.3211297078      -29.4973265312       -2.4869290501  MEMB      92              0.0000000000
     13182       120  DOPC      H14X           14.6956067554      -29.5984509063       -3.3995159889  MEMB      92              0.0000000000
     13183       120  DOPC      H14Y           15.5432991900      -30.4758641263       -2.0100367819  MEMB      92              0.0000000000
     13184       120  DOPC      C315           14.5853716488      -28.5905409083       -1.5191052968  MEMB      92              0.0000000000
     13185       120  DOPC      H15X           13.8098126131      -29.2521769871       -1.0774416900  MEMB      92              0.0000000000
     13186       120  DOPC      H15Y           14.0471213777      -27.7884047939       -2.0679081429  MEMB      92              0.0000000000
     13187       120  DOPC      C316           15.5289620794      -27.8518222757       -0.4540183442  MEMB      92              0.0000000000
     13188       120  DOPC      H16X           15.8509832979      -28.5833536087        0.3176574046  MEMB      92              0.0000000000
     13189       120  DOPC      H16Y           16.3593103980      -27.4188772879       -1.0518486161  MEMB      92              0.0000000000
     13190       120  DOPC      C317           14.8599810254      -26.6707600229        0.2683688769  MEMB      92              0.0000000000
     13191       120  DOPC      H17X           15.6024797831      -25.9252042777        0.6249686489  MEMB      92              0.0000000000
     13192       120  DOPC      H17Y           14.2844397903      -26.1218518071       -0.5073723742  MEMB      92              0.0000000000
     13193       120  DOPC      C318           13.9258748206      -27.1440103876        1.3843642592  MEMB      92              0.0000000000
     13194       120  DOPC      H18X           13.1841880985      -27.8012894766        0.8821646412  MEMB      92              0.0000000000
     13195       120  DOPC      H18Y           14.5848012482      -27.7931755782        1.9997697108  MEMB      92              0.0000000000
     13196       120  DOPC      H18Z           13.4659281464      -26.2917914756        1.9288763330  MEMB      92              0.0000000000
     13197       121  DOPC      N              26.7624528648        5.9406431566      -20.1427029537  MEMB      93              0.0000000000
     13198       121  DOPC      C12            26.5561598258        6.6921926319      -18.8205893998  MEMB      93              0.0000000000
     13199       121  DOPC      H12A           26.8318462392        7.7132606974      -19.0392605681  MEMB      93              0.0000000000
     13200       121  DOPC      H12B           27.2259659736        6.2114644157      -18.1229790692  MEMB      93              0.0000000000
     13201       121  DOPC      C13            26.6031398937        4.3938912482      -20.0518696340  MEMB      93              0.0000000000
     13202       121  DOPC      H13A           25.6057797391        4.1383700210      -19.7257076489  MEMB      93              0.0000000000
     13203       121  DOPC      H13B           26.7616714895        3.9529521479      -21.0249268892  MEMB      93              0.0000000000
     13204       121  DOPC      H13C           27.4810394936        4.1400910405      -19.4763024747  MEMB      93              0.0000000000
     13205       121  DOPC      C14            28.2077962671        6.1584413227      -20.5203070255  MEMB      93              0.0000000000
     13206       121  DOPC      H14A           28.4013590608        7.2171921642      -20.6096363632  MEMB      93              0.0000000000
     13207       121  DOPC      H14B           28.7540397771        5.8970990297      -19.6260374499  MEMB      93              0.0000000000
     13208       121  DOPC      H14C           28.5264192256        5.5386443321      -21.3453712800  MEMB      93              0.0000000000
     13209       121  DOPC      C15            25.8315190119        6.5668005728      -21.1304856387  MEMB      93              0.0000000000
     13210       121  DOPC      H15A           26.0180729376        7.6152124150      -21.3105693395  MEMB      93              0.0000000000
     13211       121  DOPC      H15B           24.8598912596        6.3198458228      -20.7287983079  MEMB      93              0.0000000000
     13212       121  DOPC      H15C           25.9517350259        5.9598689588      -22.0156873382  MEMB      93              0.0000000000
     13213       121  DOPC      C11            25.1477626208        6.7729731470      -18.2044640858  MEMB      93              0.0000000000
     13214       121  DOPC      H11A           25.2258629312        7.0632752719      -17.1349099460  MEMB      93              0.0000000000
     13215       121  DOPC      H11B           24.6927395288        7.6162561341      -18.7667352336  MEMB      93              0.0000000000
     13216       121  DOPC      P              22.8828429692        5.6450351370      -18.0846533285  MEMB      93              0.0000000000
     13217       121  DOPC      O13            22.2069396321        4.5062414923      -18.7763830437  MEMB      93              0.0000000000
     13218       121  DOPC      O14            22.3985341562        7.0267005654      -18.3729775687  MEMB      93              0.0000000000
     13219       121  DOPC      O12            24.4041322478        5.6308896735      -18.4359694336  MEMB      93              0.0000000000
     13220       121  DOPC      O11            22.8828683665        5.3428680719      -16.4595978865  MEMB      93              0.0000000000
     13221       121  DOPC      C1             23.1688900259        4.0308373515      -16.0253240469  MEMB      93              0.0000000000
     13222       121  DOPC      HA             23.9269163575        3.5558770980      -16.6842094012  MEMB      93              0.0000000000
     13223       121  DOPC      HB             22.2001445595        3.4888518396      -15.9794463170  MEMB      93              0.0000000000
     13224       121  DOPC      C2             23.9799377894        4.1763438409      -14.6210290677  MEMB      93              0.0000000000
     13225       121  DOPC      HS             24.2013584522        3.1376446707      -14.2948421152  MEMB      93              0.0000000000
     13226       121  DOPC      O21            23.2772464253        4.8913346914      -13.6118429892  MEMB      93              0.0000000000
     13227       121  DOPC      C21            22.1661866950        4.3343763330      -13.1165415124  MEMB      93              0.0000000000
     13228       121  DOPC      O22            21.8046577211        3.2318634814      -13.3837603062  MEMB      93              0.0000000000
     13229       121  DOPC      C22            21.4950572628        5.3552968721      -12.1214877978  MEMB      93              0.0000000000
     13230       121  DOPC      H2R            20.5162855985        5.7061118369      -12.5129674284  MEMB      93              0.0000000000
     13231       121  DOPC      H2S            22.1540883513        6.2393088267      -11.9853931462  MEMB      93              0.0000000000
     13232       121  DOPC      C3             25.3833807548        4.8526346029      -14.8778216298  MEMB      93              0.0000000000
     13233       121  DOPC      HX             25.2160823294        5.7651545625      -15.4890820976  MEMB      93              0.0000000000
     13234       121  DOPC      HY             25.9543799691        4.1885595027      -15.5614040892  MEMB      93              0.0000000000
     13235       121  DOPC      O31            26.0664390080        5.1085919743      -13.6820021332  MEMB      93              0.0000000000
     13236       121  DOPC      C31            27.2068095810        5.7448247052      -13.7227734604  MEMB      93              0.0000000000
     13237       121  DOPC      O32            27.8583290810        6.0295849540      -14.7386776702  MEMB      93              0.0000000000
     13238       121  DOPC      C32            27.6055774358        5.9908707052      -12.2240341807  MEMB      93              0.0000000000
     13239       121  DOPC      H2X            26.9042416000        5.6790800349      -11.4207684928  MEMB      93              0.0000000000
     13240       121  DOPC      H2Y            28.5336264811        5.3982748521      -12.0761287520  MEMB      93              0.0000000000
     13241       121  DOPC      C23            21.3650868386        4.6549830728      -10.7929428782  MEMB      93              0.0000000000
     13242       121  DOPC      H3R            20.8408702123        3.6757115713      -10.8162815313  MEMB      93              0.0000000000
     13243       121  DOPC      H3S            20.6849065828        5.1653258306      -10.0779420906  MEMB      93              0.0000000000
     13244       121  DOPC      C24            22.7495229121        4.2745981213      -10.1640293955  MEMB      93              0.0000000000
     13245       121  DOPC      H4R            23.2863251938        5.2094976702       -9.8954653672  MEMB      93              0.0000000000
     13246       121  DOPC      H4S            23.2820839693        3.5199590520      -10.7814594545  MEMB      93              0.0000000000
     13247       121  DOPC      C25            22.5883285967        3.6146854595       -8.7792783222  MEMB      93              0.0000000000
     13248       121  DOPC      H5R            22.0063430628        2.6694520579       -8.8256155331  MEMB      93              0.0000000000
     13249       121  DOPC      H5S            21.9926097416        4.2287188799       -8.0704745208  MEMB      93              0.0000000000
     13250       121  DOPC      C26            23.8666499229        3.2425210605       -8.0898185885  MEMB      93              0.0000000000
     13251       121  DOPC      H6R            24.1753776861        2.2239987477       -8.4085981034  MEMB      93              0.0000000000
     13252       121  DOPC      H6S            23.6395518911        3.4658963880       -7.0254643268  MEMB      93              0.0000000000
     13253       121  DOPC      C27            25.0484853873        4.1719252387       -8.5207555628  MEMB      93              0.0000000000
     13254       121  DOPC      H7R            24.8168610885        5.2580581902       -8.5521629601  MEMB      93              0.0000000000
     13255       121  DOPC      H7S            25.3146030889        3.8666195603       -9.5553042634  MEMB      93              0.0000000000
     13256       121  DOPC      C28            26.1629440056        3.9432004175       -7.5676999287  MEMB      93              0.0000000000
     13257       121  DOPC      H8R            26.4330311924        2.8758862167       -7.7167440869  MEMB      93              0.0000000000
     13258       121  DOPC      H8S            25.6685748659        4.0317239041       -6.5766984233  MEMB      93              0.0000000000
     13259       121  DOPC      C29            27.3967807748        4.8112671462       -7.6621578214  MEMB      93              0.0000000000
     13260       121  DOPC      H9R            27.8282493150        4.7779935772       -8.6734576896  MEMB      93              0.0000000000
     13261       121  DOPC      C210           27.7232674320        5.7270410109       -6.8485033917  MEMB      93              0.0000000000
     13262       121  DOPC      H10R           28.7520977443        6.0804736251       -7.0115782473  MEMB      93              0.0000000000
     13263       121  DOPC      C211           27.0686477738        6.2621030388       -5.6029583520  MEMB      93              0.0000000000
     13264       121  DOPC      H11R           26.2792131646        5.5906421196       -5.2026411498  MEMB      93              0.0000000000
     13265       121  DOPC      H11S           26.5674805739        7.2289463850       -5.8228818070  MEMB      93              0.0000000000
     13266       121  DOPC      C212           28.0321834346        6.7924894493       -4.4836289833  MEMB      93              0.0000000000
     13267       121  DOPC      H12R           28.5166045570        7.7228438550       -4.8498224730  MEMB      93              0.0000000000
     13268       121  DOPC      H12S           28.7415828842        5.9820829334       -4.2110228350  MEMB      93              0.0000000000
     13269       121  DOPC      C213           27.1118102052        7.0356795282       -3.3113401188  MEMB      93              0.0000000000
     13270       121  DOPC      H13R           26.6862139299        6.0373594530       -3.0735463575  MEMB      93              0.0000000000
     13271       121  DOPC      H13S           26.2889210703        7.7103400258       -3.6307267226  MEMB      93              0.0000000000
     13272       121  DOPC      C214           27.8138584394        7.7519101065       -2.1496073468  MEMB      93              0.0000000000
     13273       121  DOPC      H14R           28.4051804048        8.6890130893       -2.2302146526  MEMB      93              0.0000000000
     13274       121  DOPC      H14S           28.4906415223        6.9688974921       -1.7456566896  MEMB      93              0.0000000000
     13275       121  DOPC      C215           26.8454110747        8.0484168589       -0.8492563742  MEMB      93              0.0000000000
     13276       121  DOPC      H15R           26.4288442909        7.0318918679       -0.6835149389  MEMB      93              0.0000000000
     13277       121  DOPC      H15S           26.0073663734        8.7035691461       -1.1698457202  MEMB      93              0.0000000000
     13278       121  DOPC      C216           27.5117379997        8.5244432487        0.3610961178  MEMB      93              0.0000000000
     13279       121  DOPC      H16R           28.2086823778        9.3386740345        0.0684909217  MEMB      93              0.0000000000
     13280       121  DOPC      H16S           28.2087504036        7.7279974949        0.6989835357  MEMB      93              0.0000000000
     13281       121  DOPC      C217           26.6383639930        8.7958019729        1.6525790471  MEMB      93              0.0000000000
     13282       121  DOPC      H17R           26.1241162531        7.8589851476        1.9562975443  MEMB      93              0.0000000000
     13283       121  DOPC      H17S           25.8622382165        9.5624176685        1.4422243287  MEMB      93              0.0000000000
     13284       121  DOPC      C218           27.6022484599        9.2973566973        2.7507666379  MEMB      93              0.0000000000
     13285       121  DOPC      H18R           28.3010175632        8.5262234562        3.1398614402  MEMB      93              0.0000000000
     13286       121  DOPC      H18S           27.1106920006        9.6449710535        3.6844991026  MEMB      93              0.0000000000
     13287       121  DOPC      H18T           28.1178464307       10.1994560662        2.3574512822  MEMB      93              0.0000000000
     13288       121  DOPC      C33            27.8358942028        7.4427823270      -11.9794361093  MEMB      93              0.0000000000
     13289       121  DOPC      H3X            27.1749865846        8.1888517504      -12.4702544286  MEMB      93              0.0000000000
     13290       121  DOPC      H3Y            28.8261299156        7.7416067625      -12.3849699669  MEMB      93              0.0000000000
     13291       121  DOPC      C34            27.7859364530        7.9441951739      -10.4935005137  MEMB      93              0.0000000000
     13292       121  DOPC      H4X            28.0822160846        9.0143039793      -10.4559977448  MEMB      93              0.0000000000
     13293       121  DOPC      H4Y            28.5449804390        7.4419959719       -9.8563440898  MEMB      93              0.0000000000
     13294       121  DOPC      C35            26.4210755264        7.9748880290       -9.6887656118  MEMB      93              0.0000000000
     13295       121  DOPC      H5X            26.6483516900        8.5908228371       -8.7925006790  MEMB      93              0.0000000000
     13296       121  DOPC      H5Y            26.2592243341        6.9291341175       -9.3503516789  MEMB      93              0.0000000000
     13297       121  DOPC      C36            25.1979869541        8.5785427662      -10.4317608678  MEMB      93              0.0000000000
     13298       121  DOPC      H6X            25.5380933631        9.4873592325      -10.9727803152  MEMB      93              0.0000000000
     13299       121  DOPC      H6Y            24.6551167415        7.9279884996      -11.1503655302  MEMB      93              0.0000000000
     13300       121  DOPC      C37            24.0600242654        9.0249652497       -9.4476585168  MEMB      93              0.0000000000
     13301       121  DOPC      H7X            24.5006492664        9.8697656704       -8.8762710685  MEMB      93              0.0000000000
     13302       121  DOPC      H7Y            23.2882099659        9.4020586116      -10.1522322123  MEMB      93              0.0000000000
     13303       121  DOPC      C38            23.4597726274        7.8655974865       -8.5227957022  MEMB      93              0.0000000000
     13304       121  DOPC      H8X            24.1898430290        7.5926066618       -7.7310922766  MEMB      93              0.0000000000
     13305       121  DOPC      H8Y            23.2574080586        6.9819261889       -9.1650533255  MEMB      93              0.0000000000
     13306       121  DOPC      C39            22.1499086661        8.2609114323       -7.8596742927  MEMB      93              0.0000000000
     13307       121  DOPC      H9X            21.3657992240        8.2230288192       -8.6302177847  MEMB      93              0.0000000000
     13308       121  DOPC      C310           21.9701942762        8.7720368298       -6.6181288337  MEMB      93              0.0000000000
     13309       121  DOPC      H10X           20.9492928799        9.0229536554       -6.2943979332  MEMB      93              0.0000000000
     13310       121  DOPC      C311           23.1070338899        9.0181909364       -5.6578558288  MEMB      93              0.0000000000
     13311       121  DOPC      H11X           23.1416355089       10.0877205422       -5.3591414028  MEMB      93              0.0000000000
     13312       121  DOPC      H11Y           24.1177625734        8.8501556941       -6.0874053992  MEMB      93              0.0000000000
     13313       121  DOPC      C312           23.0635785012        8.2025136222       -4.3265998107  MEMB      93              0.0000000000
     13314       121  DOPC      H12X           22.2725210171        8.4636233767       -3.5915004572  MEMB      93              0.0000000000
     13315       121  DOPC      H12Y           24.1030744919        8.3166393395       -3.9514400732  MEMB      93              0.0000000000
     13316       121  DOPC      C313           22.9659486874        6.6637645013       -4.5123030206  MEMB      93              0.0000000000
     13317       121  DOPC      H13X           21.9638183613        6.4016249320       -4.9139718076  MEMB      93              0.0000000000
     13318       121  DOPC      H13Y           23.5769267546        6.3355886380       -5.3802474080  MEMB      93              0.0000000000
     13319       121  DOPC      C314           23.1780901486        5.8110176687       -3.2558195094  MEMB      93              0.0000000000
     13320       121  DOPC      H14X           24.0557233965        6.2710697470       -2.7533928375  MEMB      93              0.0000000000
     13321       121  DOPC      H14Y           22.3156186894        5.9703617102       -2.5738562897  MEMB      93              0.0000000000
     13322       121  DOPC      C315           23.3595909254        4.3073773195       -3.5975437812  MEMB      93              0.0000000000
     13323       121  DOPC      H15X           24.3065467068        4.1831633091       -4.1651408229  MEMB      93              0.0000000000
     13324       121  DOPC      H15Y           22.4757007724        3.9821205138       -4.1868373035  MEMB      93              0.0000000000
     13325       121  DOPC      C316           23.4724442547        3.4385870561       -2.3001250269  MEMB      93              0.0000000000
     13326       121  DOPC      H16X           22.4468981028        3.0917529646       -2.0505601065  MEMB      93              0.0000000000
     13327       121  DOPC      H16Y           24.0210788997        2.5112610756       -2.5710263080  MEMB      93              0.0000000000
     13328       121  DOPC      C317           24.2370956693        4.0464866911       -1.0885214353  MEMB      93              0.0000000000
     13329       121  DOPC      H17X           25.2468297442        4.3117262327       -1.4685288615  MEMB      93              0.0000000000
     13330       121  DOPC      H17Y           23.8710633324        5.0462382756       -0.7709701223  MEMB      93              0.0000000000
     13331       121  DOPC      C318           24.1612740153        3.1353279017        0.0616681886  MEMB      93              0.0000000000
     13332       121  DOPC      H18X           24.4760200195        3.6844798053        0.9747340927  MEMB      93              0.0000000000
     13333       121  DOPC      H18Y           23.1208481418        2.8869213339        0.3618848762  MEMB      93              0.0000000000
     13334       121  DOPC      H18Z           24.8798778908        2.2886334456        0.0294500550  MEMB      93              0.0000000000
     13335       122  DOPC      N              24.8571413173       -1.3863415818      -19.0156223801  MEMB      94              0.0000000000
     13336       122  DOPC      C12            25.8023894657       -2.0256237338      -17.9883953043  MEMB      94              0.0000000000
     13337       122  DOPC      H12A           25.8260184980       -1.3800470459      -17.1229054099  MEMB      94              0.0000000000
     13338       122  DOPC      H12B           26.7625818449       -1.8955045608      -18.4653644186  MEMB      94              0.0000000000
     13339       122  DOPC      C13            25.2763071810        0.0766838670      -19.1232107340  MEMB      94              0.0000000000
     13340       122  DOPC      H13A           24.9313143753        0.5187737073      -20.0462149191  MEMB      94              0.0000000000
     13341       122  DOPC      H13B           24.9258938433        0.6471221171      -18.2757375760  MEMB      94              0.0000000000
     13342       122  DOPC      H13C           26.3561376315        0.0670539627      -19.1066732928  MEMB      94              0.0000000000
     13343       122  DOPC      C14            23.4734067275       -1.4745656533      -18.3804461201  MEMB      94              0.0000000000
     13344       122  DOPC      H14A           23.1118373959       -2.4883936836      -18.2920125548  MEMB      94              0.0000000000
     13345       122  DOPC      H14B           23.5118667120       -1.0207111539      -17.4011928554  MEMB      94              0.0000000000
     13346       122  DOPC      H14C           22.7079602705       -0.9807412244      -18.9606438500  MEMB      94              0.0000000000
     13347       122  DOPC      C15            24.9768249134       -2.0576737356      -20.3020959046  MEMB      94              0.0000000000
     13348       122  DOPC      H15A           24.7887646907       -3.1209821161      -20.2818816736  MEMB      94              0.0000000000
     13349       122  DOPC      H15B           25.9854327370       -1.8941132151      -20.6518934109  MEMB      94              0.0000000000
     13350       122  DOPC      H15C           24.2653914148       -1.7108142456      -21.0369094864  MEMB      94              0.0000000000
     13351       122  DOPC      C11            25.4885754321       -3.5391476141      -17.7652832979  MEMB      94              0.0000000000
     13352       122  DOPC      H11A           25.8333801873       -4.0123172416      -16.8210687072  MEMB      94              0.0000000000
     13353       122  DOPC      H11B           24.4169937802       -3.7246535227      -17.5380800881  MEMB      94              0.0000000000
     13354       122  DOPC      P              27.3503590556       -4.5182163878      -19.3473515875  MEMB      94              0.0000000000
     13355       122  DOPC      O13            27.6325896510       -4.0612644327      -20.7012900380  MEMB      94              0.0000000000
     13356       122  DOPC      O14            27.6516322813       -5.9542169731      -19.1394592933  MEMB      94              0.0000000000
     13357       122  DOPC      O12            25.7844739603       -4.3557999455      -18.9664785554  MEMB      94              0.0000000000
     13358       122  DOPC      O11            28.2458269150       -3.6528481493      -18.2703667550  MEMB      94              0.0000000000
     13359       122  DOPC      C1             29.6601249020       -3.6636387221      -18.2709267883  MEMB      94              0.0000000000
     13360       122  DOPC      HA             30.0752668561       -2.6642021808      -18.5221333292  MEMB      94              0.0000000000
     13361       122  DOPC      HB             30.1251005126       -4.4162587707      -18.9429997097  MEMB      94              0.0000000000
     13362       122  DOPC      C2             30.1864485749       -4.0617071609      -16.8833665847  MEMB      94              0.0000000000
     13363       122  DOPC      HS             31.1176988368       -4.6513931598      -17.0225217086  MEMB      94              0.0000000000
     13364       122  DOPC      O21            29.2504589789       -4.8582498659      -16.2673967462  MEMB      94              0.0000000000
     13365       122  DOPC      C21            29.7266542125       -5.5394454862      -15.2676477354  MEMB      94              0.0000000000
     13366       122  DOPC      O22            30.9057749345       -5.7664268755      -14.9335769511  MEMB      94              0.0000000000
     13367       122  DOPC      C22            28.5587279225       -6.2526664886      -14.6138189624  MEMB      94              0.0000000000
     13368       122  DOPC      H2R            28.8298028163       -7.2817559374      -14.2947353590  MEMB      94              0.0000000000
     13369       122  DOPC      H2S            27.7452197027       -6.2916490952      -15.3694682297  MEMB      94              0.0000000000
     13370       122  DOPC      C3             30.5911693599       -2.8073523160      -15.9945791557  MEMB      94              0.0000000000
     13371       122  DOPC      HX             31.6659782307       -2.5869103382      -16.1692574631  MEMB      94              0.0000000000
     13372       122  DOPC      HY             30.5354560112       -3.0133594170      -14.9042680605  MEMB      94              0.0000000000
     13373       122  DOPC      O31            29.8853790717       -1.5839068763      -16.2248680828  MEMB      94              0.0000000000
     13374       122  DOPC      C31            28.7700890062       -1.2769295042      -15.5266448847  MEMB      94              0.0000000000
     13375       122  DOPC      O32            28.2761732649       -2.0011015969      -14.6594816910  MEMB      94              0.0000000000
     13376       122  DOPC      C32            28.4369905698        0.2245715233      -15.6863306378  MEMB      94              0.0000000000
     13377       122  DOPC      H2X            29.4498403510        0.6278022756      -15.4721782310  MEMB      94              0.0000000000
     13378       122  DOPC      H2Y            28.0436798523        0.3503390616      -16.7177422676  MEMB      94              0.0000000000
     13379       122  DOPC      C23            28.1877787032       -5.4119889991      -13.4435998204  MEMB      94              0.0000000000
     13380       122  DOPC      H3R            27.9122502944       -4.4368430129      -13.8991166093  MEMB      94              0.0000000000
     13381       122  DOPC      H3S            29.0556918413       -5.3463318447      -12.7531381712  MEMB      94              0.0000000000
     13382       122  DOPC      C24            26.9395186379       -5.8742413544      -12.7116894696  MEMB      94              0.0000000000
     13383       122  DOPC      H4R            27.2208562519       -6.9355257953      -12.5418512769  MEMB      94              0.0000000000
     13384       122  DOPC      H4S            26.0541572761       -5.9253559024      -13.3809009947  MEMB      94              0.0000000000
     13385       122  DOPC      C25            26.5078999768       -5.1428680681      -11.4745242938  MEMB      94              0.0000000000
     13386       122  DOPC      H5R            26.3902136884       -4.1080246635      -11.8612674107  MEMB      94              0.0000000000
     13387       122  DOPC      H5S            27.2993157650       -5.1730732284      -10.6953775415  MEMB      94              0.0000000000
     13388       122  DOPC      C26            25.2354178412       -5.7452182744      -10.7547224558  MEMB      94              0.0000000000
     13389       122  DOPC      H6R            25.3750560791       -6.8416061474      -10.8676665969  MEMB      94              0.0000000000
     13390       122  DOPC      H6S            24.3322245551       -5.4665800542      -11.3386096503  MEMB      94              0.0000000000
     13391       122  DOPC      C27            24.9012754088       -5.1512014178       -9.3836617011  MEMB      94              0.0000000000
     13392       122  DOPC      H7R            24.0400482239       -5.7002856045       -8.9464943557  MEMB      94              0.0000000000
     13393       122  DOPC      H7S            24.6680484996       -4.0737571315       -9.5216474228  MEMB      94              0.0000000000
     13394       122  DOPC      C28            25.9753624820       -5.1990957158       -8.3032170526  MEMB      94              0.0000000000
     13395       122  DOPC      H8R            25.3995329672       -4.9143274792       -7.3967689343  MEMB      94              0.0000000000
     13396       122  DOPC      H8S            26.7263701347       -4.3958377314       -8.4615992937  MEMB      94              0.0000000000
     13397       122  DOPC      C29            26.5713460318       -6.5228558929       -8.0409571996  MEMB      94              0.0000000000
     13398       122  DOPC      H9R            25.8494369852       -7.3525934663       -8.0605337655  MEMB      94              0.0000000000
     13399       122  DOPC      C210           27.8719573215       -6.7273576518       -7.8410067290  MEMB      94              0.0000000000
     13400       122  DOPC      H10R           28.2114912766       -7.7449485456       -7.5976433050  MEMB      94              0.0000000000
     13401       122  DOPC      C211           29.0305462060       -5.7851980710       -7.8982337021  MEMB      94              0.0000000000
     13402       122  DOPC      H11R           28.8288625484       -5.0500500668       -8.7064424587  MEMB      94              0.0000000000
     13403       122  DOPC      H11S           29.9755619869       -6.3313111908       -8.1056616084  MEMB      94              0.0000000000
     13404       122  DOPC      C212           29.2982342556       -4.9379660451       -6.5924839448  MEMB      94              0.0000000000
     13405       122  DOPC      H12R           29.4043069602       -5.6009441714       -5.7073122514  MEMB      94              0.0000000000
     13406       122  DOPC      H12S           28.4008013627       -4.2952648478       -6.4665059613  MEMB      94              0.0000000000
     13407       122  DOPC      C213           30.5813608542       -4.1363067597       -6.5941462626  MEMB      94              0.0000000000
     13408       122  DOPC      H13R           30.5021440814       -3.4356446585       -7.4527027067  MEMB      94              0.0000000000
     13409       122  DOPC      H13S           31.3448587095       -4.8989637578       -6.8582421576  MEMB      94              0.0000000000
     13410       122  DOPC      C214           30.9039402345       -3.4190586563       -5.3014412046  MEMB      94              0.0000000000
     13411       122  DOPC      H14R           32.0014466181       -3.2465763096       -5.3085558412  MEMB      94              0.0000000000
     13412       122  DOPC      H14S           30.6864402451       -4.0917968112       -4.4444468758  MEMB      94              0.0000000000
     13413       122  DOPC      C215           30.3173727435       -1.9927310328       -5.2865882116  MEMB      94              0.0000000000
     13414       122  DOPC      H15R           29.3926293701       -1.9060454307       -5.8962243829  MEMB      94              0.0000000000
     13415       122  DOPC      H15S           30.9820566864       -1.2609242150       -5.7935148777  MEMB      94              0.0000000000
     13416       122  DOPC      C216           29.9752468474       -1.5786068621       -3.8714313755  MEMB      94              0.0000000000
     13417       122  DOPC      H16R           30.9876707686       -1.6516891840       -3.4197930766  MEMB      94              0.0000000000
     13418       122  DOPC      H16S           29.1878495517       -2.2400117495       -3.4508720737  MEMB      94              0.0000000000
     13419       122  DOPC      C217           29.3553794630       -0.1208540507       -3.6673759705  MEMB      94              0.0000000000
     13420       122  DOPC      H17R           28.3258398112       -0.0730643649       -4.0822056951  MEMB      94              0.0000000000
     13421       122  DOPC      H17S           30.0046549588        0.5681175219       -4.2488225213  MEMB      94              0.0000000000
     13422       122  DOPC      C218           29.2513635719        0.2049265675       -2.1799242990  MEMB      94              0.0000000000
     13423       122  DOPC      H18R           28.9772938813        1.2783479853       -2.0964190826  MEMB      94              0.0000000000
     13424       122  DOPC      H18S           30.1778767161        0.0249553300       -1.5938323351  MEMB      94              0.0000000000
     13425       122  DOPC      H18T           28.3869752127       -0.3563707156       -1.7650760138  MEMB      94              0.0000000000
     13426       122  DOPC      C33            27.3438030092        0.8145352057      -14.6907963536  MEMB      94              0.0000000000
     13427       122  DOPC      H3X            27.4699620940        1.9059541189      -14.8557498610  MEMB      94              0.0000000000
     13428       122  DOPC      H3Y            27.4473008491        0.4030654402      -13.6640043844  MEMB      94              0.0000000000
     13429       122  DOPC      C34            25.9181744847        0.5379726162      -15.2141482139  MEMB      94              0.0000000000
     13430       122  DOPC      H4X            25.7340083031       -0.5571142707      -15.2486248670  MEMB      94              0.0000000000
     13431       122  DOPC      H4Y            25.8891922036        0.9475727679      -16.2464801872  MEMB      94              0.0000000000
     13432       122  DOPC      C35            24.8944274408        1.2875037247      -14.3607080214  MEMB      94              0.0000000000
     13433       122  DOPC      H5X            23.8859242173        1.1160161092      -14.7941059777  MEMB      94              0.0000000000
     13434       122  DOPC      H5Y            25.0282432407        2.3826632794      -14.4912462399  MEMB      94              0.0000000000
     13435       122  DOPC      C36            24.9773602473        1.0991368818      -12.8163065794  MEMB      94              0.0000000000
     13436       122  DOPC      H6X            25.9797293780        1.3686792584      -12.4201698126  MEMB      94              0.0000000000
     13437       122  DOPC      H6Y            24.3415374797        1.8015980896      -12.2361353929  MEMB      94              0.0000000000
     13438       122  DOPC      C37            24.6242949885       -0.3559461369      -12.4814612690  MEMB      94              0.0000000000
     13439       122  DOPC      H7X            23.6443311261       -0.5362610456      -12.9728659605  MEMB      94              0.0000000000
     13440       122  DOPC      H7Y            25.2111294123       -1.0947309288      -13.0680987974  MEMB      94              0.0000000000
     13441       122  DOPC      C38            24.6986785645       -0.7054448990      -11.0153463693  MEMB      94              0.0000000000
     13442       122  DOPC      H8X            23.9985626407       -1.5311299362      -10.7655401448  MEMB      94              0.0000000000
     13443       122  DOPC      H8Y            24.3162216906        0.1629908996      -10.4375334081  MEMB      94              0.0000000000
     13444       122  DOPC      C39            26.0929905488       -1.1267127435      -10.6574623453  MEMB      94              0.0000000000
     13445       122  DOPC      H9X            26.3873280266       -2.0164138294      -11.2334809900  MEMB      94              0.0000000000
     13446       122  DOPC      C310           26.9628674560       -0.5434736535       -9.8185242281  MEMB      94              0.0000000000
     13447       122  DOPC      H10X           27.9117200710       -1.0796082944       -9.6693995296  MEMB      94              0.0000000000
     13448       122  DOPC      C311           26.5640450575        0.6660415397       -9.0491625435  MEMB      94              0.0000000000
     13449       122  DOPC      H11X           26.1586200107        1.4313123680       -9.7450879609  MEMB      94              0.0000000000
     13450       122  DOPC      H11Y           27.4601357236        0.9368032740       -8.4508060446  MEMB      94              0.0000000000
     13451       122  DOPC      C312           25.4988830015        0.3687339630       -7.9899439570  MEMB      94              0.0000000000
     13452       122  DOPC      H12X           24.7536067436       -0.3296543074       -8.4271375665  MEMB      94              0.0000000000
     13453       122  DOPC      H12Y           25.0016035774        1.3135361198       -7.6827268875  MEMB      94              0.0000000000
     13454       122  DOPC      C313           25.9257593514       -0.0679760873       -6.5827204620  MEMB      94              0.0000000000
     13455       122  DOPC      H13X           27.0118200346        0.1505526371       -6.4988291905  MEMB      94              0.0000000000
     13456       122  DOPC      H13Y           25.4721463960        0.5314731930       -5.7646642438  MEMB      94              0.0000000000
     13457       122  DOPC      C314           25.6718277592       -1.5298885386       -6.3187503761  MEMB      94              0.0000000000
     13458       122  DOPC      H14X           24.5933407295       -1.7946728978       -6.2859555421  MEMB      94              0.0000000000
     13459       122  DOPC      H14Y           26.1704931123       -2.0999726933       -7.1315591611  MEMB      94              0.0000000000
     13460       122  DOPC      C315           26.2449977492       -2.0190881487       -4.9654653152  MEMB      94              0.0000000000
     13461       122  DOPC      H15X           25.7452210717       -1.4073817455       -4.1842105748  MEMB      94              0.0000000000
     13462       122  DOPC      H15Y           27.3448290274       -1.8731172381       -5.0236425143  MEMB      94              0.0000000000
     13463       122  DOPC      C316           25.9731125052       -3.5009882685       -4.6185585078  MEMB      94              0.0000000000
     13464       122  DOPC      H16X           24.8730410430       -3.6036216947       -4.7353050310  MEMB      94              0.0000000000
     13465       122  DOPC      H16Y           26.4785254276       -4.1109678775       -5.3975351096  MEMB      94              0.0000000000
     13466       122  DOPC      C317           26.5461345371       -4.0363681950       -3.2684100556  MEMB      94              0.0000000000
     13467       122  DOPC      H17X           26.3903371742       -5.1340359520       -3.3403377319  MEMB      94              0.0000000000
     13468       122  DOPC      H17Y           27.6392070662       -3.8638233448       -3.3671096244  MEMB      94              0.0000000000
     13469       122  DOPC      C318           26.0145529505       -3.5450485057       -1.9340585502  MEMB      94              0.0000000000
     13470       122  DOPC      H18X           24.9356943636       -3.6577910381       -1.6939044101  MEMB      94              0.0000000000
     13471       122  DOPC      H18Y           26.5773854735       -3.9446291876       -1.0634983183  MEMB      94              0.0000000000
     13472       122  DOPC      H18Z           25.9885243174       -2.4379441942       -1.8448173743  MEMB      94              0.0000000000
     13473       123  DOPC      N             -16.0052587762       22.6789665525      -20.3435690208  MEMB      95              0.0000000000
     13474       123  DOPC      C12           -15.7556944636       22.2943495511      -18.8455053860  MEMB      95              0.0000000000
     13475       123  DOPC      H12A          -15.8404055812       23.2359552734      -18.3233917687  MEMB      95              0.0000000000
     13476       123  DOPC      H12B          -14.7730992335       21.8641455167      -18.7196849013  MEMB      95              0.0000000000
     13477       123  DOPC      C13           -15.9248628470       21.4411483300      -21.2649084850  MEMB      95              0.0000000000
     13478       123  DOPC      H13A          -14.9062058800       21.0826064678      -21.2512708460  MEMB      95              0.0000000000
     13479       123  DOPC      H13B          -16.7335373732       20.7855566873      -20.9774281961  MEMB      95              0.0000000000
     13480       123  DOPC      H13C          -16.1117704698       21.7875872268      -22.2706150606  MEMB      95              0.0000000000
     13481       123  DOPC      C14           -15.0995463805       23.7783789736      -20.7604037006  MEMB      95              0.0000000000
     13482       123  DOPC      H14A          -14.1058726311       23.6327692074      -20.3631502130  MEMB      95              0.0000000000
     13483       123  DOPC      H14B          -15.0382647709       23.8893050961      -21.8329426688  MEMB      95              0.0000000000
     13484       123  DOPC      H14C          -15.3169725810       24.7011195804      -20.2430299849  MEMB      95              0.0000000000
     13485       123  DOPC      C15           -17.4817676838       23.2567646226      -20.4338104461  MEMB      95              0.0000000000
     13486       123  DOPC      H15A          -17.4603614951       24.0596715325      -19.7118116087  MEMB      95              0.0000000000
     13487       123  DOPC      H15B          -18.0910083040       22.3797194575      -20.2725106894  MEMB      95              0.0000000000
     13488       123  DOPC      H15C          -17.6131483763       23.5228390674      -21.4722435821  MEMB      95              0.0000000000
     13489       123  DOPC      C11           -16.8416624365       21.4714954330      -18.0023062281  MEMB      95              0.0000000000
     13490       123  DOPC      H11A          -16.4122671867       21.1919146474      -17.0165195767  MEMB      95              0.0000000000
     13491       123  DOPC      H11B          -17.6851605435       22.1708060977      -17.8184679965  MEMB      95              0.0000000000
     13492       123  DOPC      P             -17.6946193575       19.0055042797      -17.8655273687  MEMB      95              0.0000000000
     13493       123  DOPC      O13           -16.5577099504       18.4786582252      -17.0346744825  MEMB      95              0.0000000000
     13494       123  DOPC      O14           -18.4086625743       18.1359058668      -18.7901165881  MEMB      95              0.0000000000
     13495       123  DOPC      O12           -17.2950248601       20.2646655472      -18.6902672435  MEMB      95              0.0000000000
     13496       123  DOPC      O11           -18.7941045873       19.6292762873      -16.9689110536  MEMB      95              0.0000000000
     13497       123  DOPC      C1            -19.8837862375       20.4267557695      -17.4900356375  MEMB      95              0.0000000000
     13498       123  DOPC      HA            -20.7701362906       19.9265759487      -17.9355971284  MEMB      95              0.0000000000
     13499       123  DOPC      HB            -19.4881284185       21.1380718489      -18.2462136720  MEMB      95              0.0000000000
     13500       123  DOPC      C2            -20.3033014221       21.3455850572      -16.2902891608  MEMB      95              0.0000000000
     13501       123  DOPC      HS            -19.4875055510       22.0918118567      -16.1810021033  MEMB      95              0.0000000000
     13502       123  DOPC      O21           -20.4377396355       20.6197432276      -15.0997008714  MEMB      95              0.0000000000
     13503       123  DOPC      C21           -19.5583355603       20.7957584746      -14.1239650960  MEMB      95              0.0000000000
     13504       123  DOPC      O22           -18.5465861413       21.4379797075      -14.1279937302  MEMB      95              0.0000000000
     13505       123  DOPC      C22           -20.1239916473       20.0674704658      -12.9480425550  MEMB      95              0.0000000000
     13506       123  DOPC      H2R           -20.3251142511       19.0104599322      -13.2248089288  MEMB      95              0.0000000000
     13507       123  DOPC      H2S           -21.0073890081       20.4940815349      -12.4265705184  MEMB      95              0.0000000000
     13508       123  DOPC      C3            -21.6438286330       22.1454466107      -16.4774432322  MEMB      95              0.0000000000
     13509       123  DOPC      HX            -22.4698374005       21.4098601129      -16.5820512950  MEMB      95              0.0000000000
     13510       123  DOPC      HY            -21.7901588471       22.6986213829      -17.4297593953  MEMB      95              0.0000000000
     13511       123  DOPC      O31           -21.9487135310       22.9625088894      -15.3854677128  MEMB      95              0.0000000000
     13512       123  DOPC      C31           -21.2441691049       24.0988699897      -15.3587932202  MEMB      95              0.0000000000
     13513       123  DOPC      O32           -20.7990643601       24.7280825045      -16.3203325992  MEMB      95              0.0000000000
     13514       123  DOPC      C32           -20.8928260228       24.3213902755      -13.8446721590  MEMB      95              0.0000000000
     13515       123  DOPC      H2X           -21.8074624289       24.8017863379      -13.4360393885  MEMB      95              0.0000000000
     13516       123  DOPC      H2Y           -20.7500196807       23.3526621402      -13.3197975578  MEMB      95              0.0000000000
     13517       123  DOPC      C23           -19.0400050269       19.9695383988      -11.8416934131  MEMB      95              0.0000000000
     13518       123  DOPC      H3R           -19.2275114889       20.8842618128      -11.2396612635  MEMB      95              0.0000000000
     13519       123  DOPC      H3S           -17.9866870012       20.0058259038      -12.1931551178  MEMB      95              0.0000000000
     13520       123  DOPC      C24           -19.2301464252       18.8434156387      -10.9709493370  MEMB      95              0.0000000000
     13521       123  DOPC      H4R           -18.6640074945       17.9820440065      -11.3854928220  MEMB      95              0.0000000000
     13522       123  DOPC      H4S           -20.2750672731       18.4826700460      -10.8599331453  MEMB      95              0.0000000000
     13523       123  DOPC      C25           -18.7318927615       19.1688742051       -9.5762732288  MEMB      95              0.0000000000
     13524       123  DOPC      H5R           -19.4631756444       19.7760361249       -9.0010342128  MEMB      95              0.0000000000
     13525       123  DOPC      H5S           -17.7840328752       19.7460744915       -9.6284513293  MEMB      95              0.0000000000
     13526       123  DOPC      C26           -18.2763818046       17.9683750570       -8.7667818045  MEMB      95              0.0000000000
     13527       123  DOPC      H6R           -18.7707572244       17.0445950902       -9.1363003535  MEMB      95              0.0000000000
     13528       123  DOPC      H6S           -18.6514403102       17.9060459910       -7.7228624717  MEMB      95              0.0000000000
     13529       123  DOPC      C27           -16.7541599466       17.7313799394       -8.8601949320  MEMB      95              0.0000000000
     13530       123  DOPC      H7R           -16.2668133851       18.0115145924       -9.8184948959  MEMB      95              0.0000000000
     13531       123  DOPC      H7S           -16.6328554976       16.6643221181       -8.5755996500  MEMB      95              0.0000000000
     13532       123  DOPC      C28           -15.9471856253       18.4417467956       -7.7675458134  MEMB      95              0.0000000000
     13533       123  DOPC      H8R           -14.8808795361       18.2600682342       -8.0211298700  MEMB      95              0.0000000000
     13534       123  DOPC      H8S           -16.0716250501       17.9701732273       -6.7693201391  MEMB      95              0.0000000000
     13535       123  DOPC      C29           -16.0849475716       19.9200505063       -7.8273059047  MEMB      95              0.0000000000
     13536       123  DOPC      H9R           -15.7256278797       20.4271740467       -8.7348936447  MEMB      95              0.0000000000
     13537       123  DOPC      C210          -16.7272047704       20.6495002954       -6.8941060240  MEMB      95              0.0000000000
     13538       123  DOPC      H10R          -16.7929840910       21.7310881135       -7.0834233068  MEMB      95              0.0000000000
     13539       123  DOPC      C211          -17.4231970370       20.1661986630       -5.5627996718  MEMB      95              0.0000000000
     13540       123  DOPC      H11R          -17.9090959279       19.1716213418       -5.6578748733  MEMB      95              0.0000000000
     13541       123  DOPC      H11S          -18.2109431239       20.8950153796       -5.2753912530  MEMB      95              0.0000000000
     13542       123  DOPC      C212          -16.4856276598       20.1633800546       -4.3737987283  MEMB      95              0.0000000000
     13543       123  DOPC      H12R          -15.7305474743       19.3915702968       -4.6354952183  MEMB      95              0.0000000000
     13544       123  DOPC      H12S          -16.8733912689       19.8902447348       -3.3691311948  MEMB      95              0.0000000000
     13545       123  DOPC      C213          -15.7419966097       21.5455056007       -3.9841205451  MEMB      95              0.0000000000
     13546       123  DOPC      H13R          -15.1919461523       21.9316049593       -4.8688192791  MEMB      95              0.0000000000
     13547       123  DOPC      H13S          -14.9410464984       21.3401001584       -3.2420903263  MEMB      95              0.0000000000
     13548       123  DOPC      C214          -16.7250804344       22.6543985307       -3.4744211131  MEMB      95              0.0000000000
     13549       123  DOPC      H14R          -17.3340150884       22.1915697294       -2.6686245413  MEMB      95              0.0000000000
     13550       123  DOPC      H14S          -17.3775060993       23.0149214348       -4.2982443517  MEMB      95              0.0000000000
     13551       123  DOPC      C215          -15.9317846503       23.9150160162       -3.0121035702  MEMB      95              0.0000000000
     13552       123  DOPC      H15R          -15.4260573663       24.3631084837       -3.8940181855  MEMB      95              0.0000000000
     13553       123  DOPC      H15S          -15.3398690906       23.5394503876       -2.1501821461  MEMB      95              0.0000000000
     13554       123  DOPC      C216          -16.9973149047       24.9286641588       -2.5071961684  MEMB      95              0.0000000000
     13555       123  DOPC      H16R          -17.8124604219       24.3271198252       -2.0511211630  MEMB      95              0.0000000000
     13556       123  DOPC      H16S          -17.4471534263       25.3561414212       -3.4287320538  MEMB      95              0.0000000000
     13557       123  DOPC      C217          -16.4130548634       25.9335074549       -1.5524618591  MEMB      95              0.0000000000
     13558       123  DOPC      H17R          -15.4269431868       26.3294123117       -1.8767537769  MEMB      95              0.0000000000
     13559       123  DOPC      H17S          -16.0832185533       25.4842156981       -0.5913874337  MEMB      95              0.0000000000
     13560       123  DOPC      C218          -17.3325325286       27.0214280338       -1.0571921779  MEMB      95              0.0000000000
     13561       123  DOPC      H18R          -18.3375876000       26.6021353062       -0.8372399256  MEMB      95              0.0000000000
     13562       123  DOPC      H18S          -17.3992004870       27.8875738220       -1.7497722920  MEMB      95              0.0000000000
     13563       123  DOPC      H18T          -16.8766018464       27.4735777021       -0.1505451086  MEMB      95              0.0000000000
     13564       123  DOPC      C33           -19.5724879910       25.1204879883      -13.7605577712  MEMB      95              0.0000000000
     13565       123  DOPC      H3X           -19.8473781692       26.1963096480      -13.7974859644  MEMB      95              0.0000000000
     13566       123  DOPC      H3Y           -18.8519762031       24.8279846365      -14.5540471849  MEMB      95              0.0000000000
     13567       123  DOPC      C34           -18.8156592656       24.8978199169      -12.3849279615  MEMB      95              0.0000000000
     13568       123  DOPC      H4X           -17.7656318937       25.2334456437      -12.5231996614  MEMB      95              0.0000000000
     13569       123  DOPC      H4Y           -18.7230724796       23.8210261130      -12.1275099142  MEMB      95              0.0000000000
     13570       123  DOPC      C35           -19.3381580899       25.6185101104      -11.1176385190  MEMB      95              0.0000000000
     13571       123  DOPC      H5X           -20.3562776294       25.2433819285      -10.8788236081  MEMB      95              0.0000000000
     13572       123  DOPC      H5Y           -19.2012139368       26.7151406065      -11.2315206156  MEMB      95              0.0000000000
     13573       123  DOPC      C36           -18.4176712326       25.1827233434       -9.9077358574  MEMB      95              0.0000000000
     13574       123  DOPC      H6X           -18.7054683387       24.1439480261       -9.6385900446  MEMB      95              0.0000000000
     13575       123  DOPC      H6Y           -17.3286251265       25.2951029614      -10.0966012870  MEMB      95              0.0000000000
     13576       123  DOPC      C37           -18.5888483394       26.0529143023       -8.6666867752  MEMB      95              0.0000000000
     13577       123  DOPC      H7X           -17.9365166519       26.9112492913       -8.9351000063  MEMB      95              0.0000000000
     13578       123  DOPC      H7Y           -19.6657740053       26.3075451860       -8.5681228590  MEMB      95              0.0000000000
     13579       123  DOPC      C38           -18.0277593304       25.2385615306       -7.4072073410  MEMB      95              0.0000000000
     13580       123  DOPC      H8X           -16.9505890026       25.0647306331       -7.6165119731  MEMB      95              0.0000000000
     13581       123  DOPC      H8Y           -18.5586813205       24.2626297633       -7.4070665902  MEMB      95              0.0000000000
     13582       123  DOPC      C39           -18.3333108629       26.0492233464       -6.1615348114  MEMB      95              0.0000000000
     13583       123  DOPC      H9X           -17.6133770038       26.8285360152       -5.8710740007  MEMB      95              0.0000000000
     13584       123  DOPC      C310          -19.4200585901       25.8375028179       -5.3684317472  MEMB      95              0.0000000000
     13585       123  DOPC      H10X          -19.5231697332       26.3009205751       -4.3761556754  MEMB      95              0.0000000000
     13586       123  DOPC      C311          -20.4994531458       24.8120135617       -5.4722839338  MEMB      95              0.0000000000
     13587       123  DOPC      H11X          -20.2952372201       24.1470798749       -6.3385866143  MEMB      95              0.0000000000
     13588       123  DOPC      H11Y          -21.4537580740       25.3765076630       -5.5427782222  MEMB      95              0.0000000000
     13589       123  DOPC      C312          -20.5496695929       24.0103688893       -4.1996400092  MEMB      95              0.0000000000
     13590       123  DOPC      H12X          -20.7053731558       24.5170898369       -3.2232644778  MEMB      95              0.0000000000
     13591       123  DOPC      H12Y          -19.5376200270       23.5758746864       -4.0537237849  MEMB      95              0.0000000000
     13592       123  DOPC      C313          -21.5909042067       22.9492514312       -4.3862053738  MEMB      95              0.0000000000
     13593       123  DOPC      H13X          -22.6176803399       23.3589343101       -4.4967121745  MEMB      95              0.0000000000
     13594       123  DOPC      H13Y          -21.3719211762       22.3476831482       -5.2942162399  MEMB      95              0.0000000000
     13595       123  DOPC      C314          -21.6669159919       22.0373797564       -3.1593341590  MEMB      95              0.0000000000
     13596       123  DOPC      H14X          -22.1337765248       22.5894239945       -2.3157644878  MEMB      95              0.0000000000
     13597       123  DOPC      H14Y          -22.3325695359       21.1769550457       -3.3849356077  MEMB      95              0.0000000000
     13598       123  DOPC      C315          -20.3538609773       21.3567703948       -2.8245491905  MEMB      95              0.0000000000
     13599       123  DOPC      H15X          -19.4939102754       22.0392283271       -2.6540881988  MEMB      95              0.0000000000
     13600       123  DOPC      H15Y          -20.0617033021       20.6305886279       -3.6129818981  MEMB      95              0.0000000000
     13601       123  DOPC      C316          -20.4642020548       20.5313482179       -1.5093537478  MEMB      95              0.0000000000
     13602       123  DOPC      H16X          -20.5839118862       21.2267641480       -0.6512247889  MEMB      95              0.0000000000
     13603       123  DOPC      H16Y          -21.4626882489       20.0714243199       -1.6700285994  MEMB      95              0.0000000000
     13604       123  DOPC      C317          -19.3487139080       19.5622158994       -1.3151086051  MEMB      95              0.0000000000
     13605       123  DOPC      H17X          -19.5284742298       18.6488262513       -1.9215120389  MEMB      95              0.0000000000
     13606       123  DOPC      H17Y          -18.3852899786       20.0409868836       -1.5924412816  MEMB      95              0.0000000000
     13607       123  DOPC      C318          -19.0831452210       19.2344838219        0.1565233736  MEMB      95              0.0000000000
     13608       123  DOPC      H18X          -18.4267419618       18.3388587380        0.1927431387  MEMB      95              0.0000000000
     13609       123  DOPC      H18Y          -18.5221331835       20.0667147949        0.6329465168  MEMB      95              0.0000000000
     13610       123  DOPC      H18Z          -20.0064506073       18.9895671811        0.7238371070  MEMB      95              0.0000000000
     13611       124  DOPC      N              -9.5160394905      -26.2556331883      -19.4015585403  MEMB      96              0.0000000000
     13612       124  DOPC      C12           -10.3754147596      -25.1030686378      -19.9188207056  MEMB      96              0.0000000000
     13613       124  DOPC      H12A          -11.2139084030      -25.5322070564      -20.4471847598  MEMB      96              0.0000000000
     13614       124  DOPC      H12B           -9.9122198659      -24.5930719965      -20.7505380591  MEMB      96              0.0000000000
     13615       124  DOPC      C13            -8.1700490784      -25.6469404234      -19.1197616242  MEMB      96              0.0000000000
     13616       124  DOPC      H13A           -8.1863072853      -24.7825886926      -18.4724350117  MEMB      96              0.0000000000
     13617       124  DOPC      H13B           -7.4206201746      -26.3901304103      -18.8907965237  MEMB      96              0.0000000000
     13618       124  DOPC      H13C           -7.7781611543      -25.1901501061      -20.0165150264  MEMB      96              0.0000000000
     13619       124  DOPC      C14            -9.2076234213      -27.3177150195      -20.4712326469  MEMB      96              0.0000000000
     13620       124  DOPC      H14A           -8.3617930460      -27.9649328298      -20.2921250008  MEMB      96              0.0000000000
     13621       124  DOPC      H14B          -10.1043467827      -27.9171136869      -20.5260817298  MEMB      96              0.0000000000
     13622       124  DOPC      H14C           -8.9557674061      -26.8671779228      -21.4199081331  MEMB      96              0.0000000000
     13623       124  DOPC      C15           -10.0204463855      -26.7384027633      -18.0573525757  MEMB      96              0.0000000000
     13624       124  DOPC      H15A          -10.8002423196      -27.4700550998      -18.2090201586  MEMB      96              0.0000000000
     13625       124  DOPC      H15B          -10.3339964088      -25.8633682712      -17.5074425328  MEMB      96              0.0000000000
     13626       124  DOPC      H15C           -9.2083617520      -27.2387214657      -17.5507958600  MEMB      96              0.0000000000
     13627       124  DOPC      C11           -10.9596282474      -24.1802347075      -18.8626919914  MEMB      96              0.0000000000
     13628       124  DOPC      H11A          -10.1599594443      -23.7639258667      -18.2134327885  MEMB      96              0.0000000000
     13629       124  DOPC      H11B          -11.3560675126      -23.2435040423      -19.3095618875  MEMB      96              0.0000000000
     13630       124  DOPC      P             -13.3126290249      -25.2473771301      -18.7483708427  MEMB      96              0.0000000000
     13631       124  DOPC      O13           -13.1770131528      -26.6921518067      -19.1215539432  MEMB      96              0.0000000000
     13632       124  DOPC      O14           -13.8417690642      -24.2375857059      -19.6932683730  MEMB      96              0.0000000000
     13633       124  DOPC      O12           -11.9925733014      -24.7465133813      -18.1543269972  MEMB      96              0.0000000000
     13634       124  DOPC      O11           -14.1646569716      -25.2541796201      -17.4510617589  MEMB      96              0.0000000000
     13635       124  DOPC      C1            -14.4336685492      -24.1057639567      -16.6883607569  MEMB      96              0.0000000000
     13636       124  DOPC      HA            -15.5014700682      -23.8479200396      -16.8546064995  MEMB      96              0.0000000000
     13637       124  DOPC      HB            -13.8335881791      -23.2110378477      -16.9598195866  MEMB      96              0.0000000000
     13638       124  DOPC      C2            -14.0754487263      -24.3524984967      -15.1931962368  MEMB      96              0.0000000000
     13639       124  DOPC      HS            -14.2735250216      -23.3714967362      -14.7107831864  MEMB      96              0.0000000000
     13640       124  DOPC      O21           -12.7424155259      -24.8647401075      -15.1244480240  MEMB      96              0.0000000000
     13641       124  DOPC      C21           -11.8564562888      -23.9586353657      -15.0001828635  MEMB      96              0.0000000000
     13642       124  DOPC      O22           -11.9658547351      -22.7580266353      -14.7749273632  MEMB      96              0.0000000000
     13643       124  DOPC      C22           -10.5302175912      -24.7184455482      -14.9390408933  MEMB      96              0.0000000000
     13644       124  DOPC      H2R            -9.7762595699      -23.9983391737      -14.5552241230  MEMB      96              0.0000000000
     13645       124  DOPC      H2S           -10.1473136363      -25.1117359525      -15.9049747196  MEMB      96              0.0000000000
     13646       124  DOPC      C3            -14.9956182037      -25.3724767684      -14.4433909047  MEMB      96              0.0000000000
     13647       124  DOPC      HX            -15.1010671016      -26.2481590782      -15.1189515253  MEMB      96              0.0000000000
     13648       124  DOPC      HY            -15.9599196476      -24.8850127270      -14.1848913646  MEMB      96              0.0000000000
     13649       124  DOPC      O31           -14.3670071149      -25.9217226420      -13.2944273860  MEMB      96              0.0000000000
     13650       124  DOPC      C31           -14.1896282386      -25.0833480315      -12.2304899223  MEMB      96              0.0000000000
     13651       124  DOPC      O32           -14.6419487978      -23.9145931523      -12.2523182512  MEMB      96              0.0000000000
     13652       124  DOPC      C32           -13.3032740890      -25.6782697675      -11.1243078614  MEMB      96              0.0000000000
     13653       124  DOPC      H2X           -13.8087068254      -26.6269607589      -10.8435154143  MEMB      96              0.0000000000
     13654       124  DOPC      H2Y           -12.2908976825      -25.8663516240      -11.5414889744  MEMB      96              0.0000000000
     13655       124  DOPC      C23           -10.5294665544      -26.0430611429      -14.0519622648  MEMB      96              0.0000000000
     13656       124  DOPC      H3R           -10.9660786685      -26.8314846664      -14.7016384873  MEMB      96              0.0000000000
     13657       124  DOPC      H3S           -11.0825864567      -25.8020614827      -13.1190643663  MEMB      96              0.0000000000
     13658       124  DOPC      C24            -9.0732814778      -26.4691396140      -13.7241963934  MEMB      96              0.0000000000
     13659       124  DOPC      H4R            -8.6225303100      -25.4972932522      -13.4298172612  MEMB      96              0.0000000000
     13660       124  DOPC      H4S            -8.7070698733      -26.6171028889      -14.7626166280  MEMB      96              0.0000000000
     13661       124  DOPC      C25            -9.0048208433      -27.6520614436      -12.8660598380  MEMB      96              0.0000000000
     13662       124  DOPC      H5R            -8.0462681125      -28.1972605794      -13.0011723921  MEMB      96              0.0000000000
     13663       124  DOPC      H5S            -9.8180080298      -28.2281005328      -13.3572082415  MEMB      96              0.0000000000
     13664       124  DOPC      C26            -9.2839353589      -27.4122314033      -11.3644145837  MEMB      96              0.0000000000
     13665       124  DOPC      H6R           -10.2848638494      -26.9335314897      -11.3068851401  MEMB      96              0.0000000000
     13666       124  DOPC      H6S            -8.4738512049      -26.7437847006      -11.0021110695  MEMB      96              0.0000000000
     13667       124  DOPC      C27            -9.2425747995      -28.6824248899      -10.4108684373  MEMB      96              0.0000000000
     13668       124  DOPC      H7R            -9.2352194779      -28.2468273260       -9.3888499931  MEMB      96              0.0000000000
     13669       124  DOPC      H7S            -8.3644089399      -29.3232398005      -10.6400009982  MEMB      96              0.0000000000
     13670       124  DOPC      C28           -10.5185067357      -29.5609710546      -10.5199023191  MEMB      96              0.0000000000
     13671       124  DOPC      H8R           -10.6633994264      -29.6284859372      -11.6193428896  MEMB      96              0.0000000000
     13672       124  DOPC      H8S           -11.2463637646      -28.8691017613      -10.0446529238  MEMB      96              0.0000000000
     13673       124  DOPC      C29           -10.3799965481      -30.8876224040       -9.8581594513  MEMB      96              0.0000000000
     13674       124  DOPC      H9R            -9.9630441468      -31.6634256055      -10.5171590506  MEMB      96              0.0000000000
     13675       124  DOPC      C210          -10.6080653244      -31.3260596007       -8.5946198391  MEMB      96              0.0000000000
     13676       124  DOPC      H10R          -10.3365807854      -32.3636619275       -8.3503315350  MEMB      96              0.0000000000
     13677       124  DOPC      C211          -11.0679042635      -30.5053801670       -7.4415102644  MEMB      96              0.0000000000
     13678       124  DOPC      H11R          -11.7384599877      -31.1813318876       -6.8690027615  MEMB      96              0.0000000000
     13679       124  DOPC      H11S          -11.7965685388      -29.7100276541       -7.7075622484  MEMB      96              0.0000000000
     13680       124  DOPC      C212           -9.9014614490      -29.9150444609       -6.5964215231  MEMB      96              0.0000000000
     13681       124  DOPC      H12R           -9.3105759724      -29.2390895960       -7.2508376660  MEMB      96              0.0000000000
     13682       124  DOPC      H12S           -9.2640345164      -30.7054510379       -6.1455718541  MEMB      96              0.0000000000
     13683       124  DOPC      C213          -10.4186524926      -29.0490895072       -5.3901784004  MEMB      96              0.0000000000
     13684       124  DOPC      H13R          -11.1161197992      -28.2424726434       -5.7019958082  MEMB      96              0.0000000000
     13685       124  DOPC      H13S           -9.4579130851      -28.5744592387       -5.0968757453  MEMB      96              0.0000000000
     13686       124  DOPC      C214          -10.9780849826      -29.8299864999       -4.2617430450  MEMB      96              0.0000000000
     13687       124  DOPC      H14R          -10.1471759506      -30.3583703523       -3.7472323406  MEMB      96              0.0000000000
     13688       124  DOPC      H14S          -11.7476523324      -30.5724038343       -4.5632450289  MEMB      96              0.0000000000
     13689       124  DOPC      C215          -11.4113589085      -28.7575557233       -3.2432554925  MEMB      96              0.0000000000
     13690       124  DOPC      H15R          -12.5082936479      -28.7717340988       -3.4189093528  MEMB      96              0.0000000000
     13691       124  DOPC      H15S          -11.0555572773      -27.7326967661       -3.4828178178  MEMB      96              0.0000000000
     13692       124  DOPC      C216          -11.1750182014      -29.0446512296       -1.7624063374  MEMB      96              0.0000000000
     13693       124  DOPC      H16R          -11.7446957467      -29.9563843593       -1.4821739628  MEMB      96              0.0000000000
     13694       124  DOPC      H16S          -11.5344390542      -28.2161844180       -1.1152746569  MEMB      96              0.0000000000
     13695       124  DOPC      C217           -9.6836545005      -29.3291144597       -1.4359848179  MEMB      96              0.0000000000
     13696       124  DOPC      H17R           -9.3993556441      -30.3540835806       -1.7568174362  MEMB      96              0.0000000000
     13697       124  DOPC      H17S           -9.7376599208      -29.4528387497       -0.3332169536  MEMB      96              0.0000000000
     13698       124  DOPC      C218           -8.7125566005      -28.3706564418       -1.8869933783  MEMB      96              0.0000000000
     13699       124  DOPC      H18R           -8.9407212465      -27.3778673109       -1.4435615817  MEMB      96              0.0000000000
     13700       124  DOPC      H18S           -8.5937016470      -28.4259523371       -2.9902325181  MEMB      96              0.0000000000
     13701       124  DOPC      H18T           -7.6881392630      -28.6151315774       -1.5332675031  MEMB      96              0.0000000000
     13702       124  DOPC      C33           -13.3885719409      -24.8537384962       -9.7460286514  MEMB      96              0.0000000000
     13703       124  DOPC      H3X           -14.4157809992      -24.4442283145       -9.6389594381  MEMB      96              0.0000000000
     13704       124  DOPC      H3Y           -12.7503847564      -23.9782069753       -9.9919607267  MEMB      96              0.0000000000
     13705       124  DOPC      C34           -12.9402313148      -25.4460909148       -8.3761946454  MEMB      96              0.0000000000
     13706       124  DOPC      H4X           -13.7371580259      -26.1731306706       -8.1104094384  MEMB      96              0.0000000000
     13707       124  DOPC      H4Y           -12.9245727352      -24.6897168024       -7.5625774244  MEMB      96              0.0000000000
     13708       124  DOPC      C35           -11.6829598235      -26.2873070488       -8.4905065543  MEMB      96              0.0000000000
     13709       124  DOPC      H5X           -11.9480141642      -27.1384652479       -9.1535275284  MEMB      96              0.0000000000
     13710       124  DOPC      H5Y           -11.5695098515      -26.6351166066       -7.4414693045  MEMB      96              0.0000000000
     13711       124  DOPC      C36           -10.3265892517      -25.6226651863       -8.8464447698  MEMB      96              0.0000000000
     13712       124  DOPC      H6X            -9.5185677651      -26.3223581629       -8.5433738529  MEMB      96              0.0000000000
     13713       124  DOPC      H6Y           -10.2359611681      -25.4782342911       -9.9442826204  MEMB      96              0.0000000000
     13714       124  DOPC      C37           -10.0045816492      -24.3096977702       -8.1203917174  MEMB      96              0.0000000000
     13715       124  DOPC      H7X           -10.7531729464      -23.5597279450       -8.4542735341  MEMB      96              0.0000000000
     13716       124  DOPC      H7Y           -10.1984106014      -24.2717494334       -7.0270885412  MEMB      96              0.0000000000
     13717       124  DOPC      C38            -8.5038387742      -23.9280567208       -8.3834486902  MEMB      96              0.0000000000
     13718       124  DOPC      H8X            -8.5168699050      -22.8180140255       -8.4276793706  MEMB      96              0.0000000000
     13719       124  DOPC      H8Y            -8.2506019459      -24.3460662620       -9.3811763228  MEMB      96              0.0000000000
     13720       124  DOPC      C39            -7.5387280202      -24.3968510466       -7.3703037513  MEMB      96              0.0000000000
     13721       124  DOPC      H9X            -7.0810530062      -25.3138230384       -7.7699230613  MEMB      96              0.0000000000
     13722       124  DOPC      C310           -6.9507049358      -23.8210220349       -6.2689586257  MEMB      96              0.0000000000
     13723       124  DOPC      H10X           -6.1919328498      -24.3872762804       -5.7089397011  MEMB      96              0.0000000000
     13724       124  DOPC      C311           -7.1950245105      -22.4135129464       -5.7848769053  MEMB      96              0.0000000000
     13725       124  DOPC      H11X           -8.1390873304      -22.0578751378       -6.2502677219  MEMB      96              0.0000000000
     13726       124  DOPC      H11Y           -6.2865173935      -21.8185126960       -6.0192086981  MEMB      96              0.0000000000
     13727       124  DOPC      C312           -7.4511361090      -22.2685848903       -4.2077513195  MEMB      96              0.0000000000
     13728       124  DOPC      H12X           -7.2038908122      -21.2218557924       -3.9292745646  MEMB      96              0.0000000000
     13729       124  DOPC      H12Y           -6.6886087834      -22.9008033942       -3.7045889090  MEMB      96              0.0000000000
     13730       124  DOPC      C313           -8.8737022398      -22.6234732405       -3.7801945030  MEMB      96              0.0000000000
     13731       124  DOPC      H13X           -9.6284763334      -22.0540589716       -4.3636362202  MEMB      96              0.0000000000
     13732       124  DOPC      H13Y           -9.1381323719      -23.6972884958       -3.6738055476  MEMB      96              0.0000000000
     13733       124  DOPC      C314           -9.0987608783      -22.0438695043       -2.2994127279  MEMB      96              0.0000000000
     13734       124  DOPC      H14X           -8.7344067927      -22.7263707338       -1.5020662542  MEMB      96              0.0000000000
     13735       124  DOPC      H14Y           -8.6404809261      -21.0317943182       -2.3014752326  MEMB      96              0.0000000000
     13736       124  DOPC      C315          -10.6316395152      -21.8770485387       -1.9396114762  MEMB      96              0.0000000000
     13737       124  DOPC      H15X          -11.2307327012      -22.7951627649       -2.1198194320  MEMB      96              0.0000000000
     13738       124  DOPC      H15Y          -11.1089603249      -21.1048731769       -2.5801045713  MEMB      96              0.0000000000
     13739       124  DOPC      C316          -10.7852658194      -21.3515561128       -0.5262390640  MEMB      96              0.0000000000
     13740       124  DOPC      H16X           -9.9423599475      -20.6967690187       -0.2178819775  MEMB      96              0.0000000000
     13741       124  DOPC      H16Y          -11.6920354426      -20.7141443487       -0.6023725384  MEMB      96              0.0000000000
     13742       124  DOPC      C317          -11.0587702240      -22.3548207366        0.6321411496  MEMB      96              0.0000000000
     13743       124  DOPC      H17X          -11.4958242836      -23.2833249364        0.2064819914  MEMB      96              0.0000000000
     13744       124  DOPC      H17Y          -10.0712401853      -22.6275293892        1.0619492843  MEMB      96              0.0000000000
     13745       124  DOPC      C318          -11.8919767372      -21.7730660920        1.7965366491  MEMB      96              0.0000000000
     13746       124  DOPC      H18X          -11.8169892572      -22.4546268972        2.6707075890  MEMB      96              0.0000000000
     13747       124  DOPC      H18Y          -11.4670147574      -20.8153453111        2.1659945089  MEMB      96              0.0000000000
     13748       124  DOPC      H18Z          -12.9767306910      -21.5892779005        1.6420972572  MEMB      96              0.0000000000
     13749       125  DOPC      N             -26.4903801605      -10.3941385266      -17.8606740326  MEMB      97              0.0000000000
     13750       125  DOPC      C12           -27.7830375943       -9.8763859686      -17.2552914542  MEMB      97              0.0000000000
     13751       125  DOPC      H12A          -27.5185082506       -9.5014711217      -16.2776088800  MEMB      97              0.0000000000
     13752       125  DOPC      H12B          -28.4352885865      -10.7368304491      -17.2307134790  MEMB      97              0.0000000000
     13753       125  DOPC      C13           -25.8635370598      -11.2239491081      -16.7891379530  MEMB      97              0.0000000000
     13754       125  DOPC      H13A          -25.8266256607      -10.5464917532      -15.9488469530  MEMB      97              0.0000000000
     13755       125  DOPC      H13B          -26.5012548344      -12.0541436692      -16.5236325142  MEMB      97              0.0000000000
     13756       125  DOPC      H13C          -24.8831683321      -11.5424702873      -17.1113509524  MEMB      97              0.0000000000
     13757       125  DOPC      C14           -25.6103576169       -9.1969872366      -18.1773036342  MEMB      97              0.0000000000
     13758       125  DOPC      H14A          -24.5986785235       -9.5216199910      -18.3710013639  MEMB      97              0.0000000000
     13759       125  DOPC      H14B          -26.0258958802       -8.6120007752      -18.9844707993  MEMB      97              0.0000000000
     13760       125  DOPC      H14C          -25.6089124142       -8.5426279128      -17.3181112692  MEMB      97              0.0000000000
     13761       125  DOPC      C15           -26.6990531453      -11.2445431977      -19.0309286756  MEMB      97              0.0000000000
     13762       125  DOPC      H15A          -27.1840624403      -10.7044010784      -19.8305613612  MEMB      97              0.0000000000
     13763       125  DOPC      H15B          -27.3238052640      -12.0581567902      -18.6931155359  MEMB      97              0.0000000000
     13764       125  DOPC      H15C          -25.7901144783      -11.5305340545      -19.5392981768  MEMB      97              0.0000000000
     13765       125  DOPC      C11           -28.5718985047       -8.8125205572      -18.1242445909  MEMB      97              0.0000000000
     13766       125  DOPC      H11A          -29.5479244236       -8.7370997479      -17.5988817881  MEMB      97              0.0000000000
     13767       125  DOPC      H11B          -28.0606750355       -7.8300510082      -18.0363520885  MEMB      97              0.0000000000
     13768       125  DOPC      P             -29.8910582542       -9.0509958128      -20.4763786346  MEMB      97              0.0000000000
     13769       125  DOPC      O13           -30.2849732796      -10.3716094786      -21.0550384517  MEMB      97              0.0000000000
     13770       125  DOPC      O14           -29.7167154890       -7.8905947141      -21.3451056077  MEMB      97              0.0000000000
     13771       125  DOPC      O12           -28.6150579176       -9.1926485830      -19.4845767450  MEMB      97              0.0000000000
     13772       125  DOPC      O11           -31.0304222793       -8.7691679534      -19.4013202717  MEMB      97              0.0000000000
     13773       125  DOPC      C1            -32.4310096539       -8.7869934322      -19.6675736332  MEMB      97              0.0000000000
     13774       125  DOPC      HA            -32.6402040782       -9.4013043598      -20.5693391097  MEMB      97              0.0000000000
     13775       125  DOPC      HB            -32.7363571013       -7.7369939609      -19.8640047111  MEMB      97              0.0000000000
     13776       125  DOPC      C2            -33.2146044987       -9.3782237257      -18.4588818068  MEMB      97              0.0000000000
     13777       125  DOPC      HS            -34.2952750814       -9.1753625733      -18.6180032979  MEMB      97              0.0000000000
     13778       125  DOPC      O21           -32.7676541111       -8.8294413516      -17.1785608833  MEMB      97              0.0000000000
     13779       125  DOPC      C21           -33.0265732778       -7.4637244797      -17.0145464141  MEMB      97              0.0000000000
     13780       125  DOPC      O22           -33.5272923863       -6.6765211970      -17.7813000969  MEMB      97              0.0000000000
     13781       125  DOPC      C22           -32.8289214123       -7.1021555730      -15.5007008367  MEMB      97              0.0000000000
     13782       125  DOPC      H2R           -33.7994521879       -6.8658408660      -15.0143403619  MEMB      97              0.0000000000
     13783       125  DOPC      H2S           -32.1356156969       -6.2340263868      -15.5005696467  MEMB      97              0.0000000000
     13784       125  DOPC      C3            -33.2256415822      -10.9623535572      -18.2719682797  MEMB      97              0.0000000000
     13785       125  DOPC      HX            -33.8905698676      -11.4431807565      -19.0209657932  MEMB      97              0.0000000000
     13786       125  DOPC      HY            -33.7862242169      -11.2201406821      -17.3480560018  MEMB      97              0.0000000000
     13787       125  DOPC      O31           -31.8573010521      -11.4407058490      -18.3208916329  MEMB      97              0.0000000000
     13788       125  DOPC      C31           -31.3431723428      -11.7009741335      -17.0391380061  MEMB      97              0.0000000000
     13789       125  DOPC      O32           -31.7383313803      -11.2465533394      -16.0173276415  MEMB      97              0.0000000000
     13790       125  DOPC      C32           -30.1215755404      -12.5639168770      -17.2162042343  MEMB      97              0.0000000000
     13791       125  DOPC      H2X           -30.3200995111      -13.4714504847      -17.8255414598  MEMB      97              0.0000000000
     13792       125  DOPC      H2Y           -29.3036150656      -12.1036763368      -17.8107130172  MEMB      97              0.0000000000
     13793       125  DOPC      C23           -32.1512629415       -8.2882872714      -14.6480342807  MEMB      97              0.0000000000
     13794       125  DOPC      H3R           -31.2669996389       -8.6591562153      -15.2091540451  MEMB      97              0.0000000000
     13795       125  DOPC      H3S           -32.9177232331       -9.0923895573      -14.6313281246  MEMB      97              0.0000000000
     13796       125  DOPC      C24           -31.6124687837       -7.9373118189      -13.2478465128  MEMB      97              0.0000000000
     13797       125  DOPC      H4R           -32.3926012327       -7.3653891928      -12.7013857119  MEMB      97              0.0000000000
     13798       125  DOPC      H4S           -30.7365775626       -7.2624108185      -13.3557537273  MEMB      97              0.0000000000
     13799       125  DOPC      C25           -31.1128882411       -9.1616999681      -12.5186289886  MEMB      97              0.0000000000
     13800       125  DOPC      H5R           -30.1231541426       -9.4891566648      -12.9027113631  MEMB      97              0.0000000000
     13801       125  DOPC      H5S           -31.9520946863       -9.8399628035      -12.7832287472  MEMB      97              0.0000000000
     13802       125  DOPC      C26           -30.9501092674       -9.0279458051      -10.9966548330  MEMB      97              0.0000000000
     13803       125  DOPC      H6R           -30.8281931195      -10.0555092351      -10.5922166890  MEMB      97              0.0000000000
     13804       125  DOPC      H6S           -31.7897842871       -8.5289156658      -10.4672820717  MEMB      97              0.0000000000
     13805       125  DOPC      C27           -29.7606077542       -8.1248170493      -10.6382288951  MEMB      97              0.0000000000
     13806       125  DOPC      H7R           -29.9999532072       -7.0407399398      -10.6807886374  MEMB      97              0.0000000000
     13807       125  DOPC      H7S           -29.0618114538       -8.2286069529      -11.4956862502  MEMB      97              0.0000000000
     13808       125  DOPC      C28           -29.0091944211       -8.5144473082       -9.3924407610  MEMB      97              0.0000000000
     13809       125  DOPC      H8R           -27.9856223274       -8.1290852401       -9.5876771221  MEMB      97              0.0000000000
     13810       125  DOPC      H8S           -28.9213239334       -9.6216345817       -9.3653082858  MEMB      97              0.0000000000
     13811       125  DOPC      C29           -29.6058133287       -7.8727392859       -8.1601011934  MEMB      97              0.0000000000
     13812       125  DOPC      H9R           -29.2855818781       -6.8255503177       -8.0559541955  MEMB      97              0.0000000000
     13813       125  DOPC      C210          -30.5161869452       -8.3435925918       -7.3276816182  MEMB      97              0.0000000000
     13814       125  DOPC      H10R          -30.7614421109       -7.7355449357       -6.4444333040  MEMB      97              0.0000000000
     13815       125  DOPC      C211          -31.0985096371       -9.7430525421       -7.4623567387  MEMB      97              0.0000000000
     13816       125  DOPC      H11R          -30.4672914098      -10.2227077806       -8.2406984580  MEMB      97              0.0000000000
     13817       125  DOPC      H11S          -32.1883137469       -9.7339116351       -7.6781447784  MEMB      97              0.0000000000
     13818       125  DOPC      C212          -30.9027685788      -10.5414490816       -6.1714595146  MEMB      97              0.0000000000
     13819       125  DOPC      H12R          -29.8637655004      -10.5211221239       -5.7785470412  MEMB      97              0.0000000000
     13820       125  DOPC      H12S          -31.0480661620      -11.5917084313       -6.5033707594  MEMB      97              0.0000000000
     13821       125  DOPC      C213          -31.9155407262      -10.0683306402       -5.0123803180  MEMB      97              0.0000000000
     13822       125  DOPC      H13R          -32.9736018147       -9.8329781971       -5.2561777462  MEMB      97              0.0000000000
     13823       125  DOPC      H13S          -31.4907368041       -9.1299419954       -4.5961002220  MEMB      97              0.0000000000
     13824       125  DOPC      C214          -32.0704671931      -11.2734099069       -3.9927955574  MEMB      97              0.0000000000
     13825       125  DOPC      H14R          -31.0363786237      -11.4708938972       -3.6378564921  MEMB      97              0.0000000000
     13826       125  DOPC      H14S          -32.3213209930      -12.1596604661       -4.6140468848  MEMB      97              0.0000000000
     13827       125  DOPC      C215          -33.0772496856      -11.0722637558       -2.8639546972  MEMB      97              0.0000000000
     13828       125  DOPC      H15R          -32.8286123263      -11.9565903308       -2.2390806922  MEMB      97              0.0000000000
     13829       125  DOPC      H15S          -34.0758212004      -11.2875389370       -3.3007978981  MEMB      97              0.0000000000
     13830       125  DOPC      C216          -33.0296110955       -9.7138213036       -2.1347412937  MEMB      97              0.0000000000
     13831       125  DOPC      H16R          -33.8312887537       -9.7468316322       -1.3662731182  MEMB      97              0.0000000000
     13832       125  DOPC      H16S          -33.1512427118       -8.8713632344       -2.8487390296  MEMB      97              0.0000000000
     13833       125  DOPC      C217          -31.8103408534       -9.5137166658       -1.2296478640  MEMB      97              0.0000000000
     13834       125  DOPC      H17R          -30.9595143826       -9.4725112608       -1.9428937689  MEMB      97              0.0000000000
     13835       125  DOPC      H17S          -31.7385819022      -10.4307832275       -0.6066226509  MEMB      97              0.0000000000
     13836       125  DOPC      C218          -31.7946527750       -8.1729884769       -0.3622264114  MEMB      97              0.0000000000
     13837       125  DOPC      H18R          -32.3526183550       -7.4043740859       -0.9386179685  MEMB      97              0.0000000000
     13838       125  DOPC      H18S          -30.7909463707       -7.7570394812       -0.1301030725  MEMB      97              0.0000000000
     13839       125  DOPC      H18T          -32.2908384584       -8.3292265288        0.6194616684  MEMB      97              0.0000000000
     13840       125  DOPC      C33           -29.7365419671      -13.1204200639      -15.8353559764  MEMB      97              0.0000000000
     13841       125  DOPC      H3X           -30.5241477247      -13.8494927438      -15.5482128202  MEMB      97              0.0000000000
     13842       125  DOPC      H3Y           -29.5902001880      -12.3394205683      -15.0588604720  MEMB      97              0.0000000000
     13843       125  DOPC      C34           -28.3885903696      -13.8080307198      -15.8758191227  MEMB      97              0.0000000000
     13844       125  DOPC      H4X           -27.7733434215      -13.4911436832      -16.7449420197  MEMB      97              0.0000000000
     13845       125  DOPC      H4Y           -28.5425573594      -14.8986389528      -16.0213825449  MEMB      97              0.0000000000
     13846       125  DOPC      C35           -27.6002060154      -13.7607698916      -14.5213455027  MEMB      97              0.0000000000
     13847       125  DOPC      H5X           -27.1604134554      -12.7704468384      -14.2760626273  MEMB      97              0.0000000000
     13848       125  DOPC      H5Y           -26.7289648895      -14.3824575699      -14.8192791204  MEMB      97              0.0000000000
     13849       125  DOPC      C36           -28.3358783543      -14.3822107147      -13.3119189923  MEMB      97              0.0000000000
     13850       125  DOPC      H6X           -29.1526615976      -13.7093704238      -12.9735821574  MEMB      97              0.0000000000
     13851       125  DOPC      H6Y           -28.7916727253      -15.3775766660      -13.5011784860  MEMB      97              0.0000000000
     13852       125  DOPC      C37           -27.4549775194      -14.7008093259      -12.0801980860  MEMB      97              0.0000000000
     13853       125  DOPC      H7X           -26.5037605750      -15.1384266000      -12.4516798588  MEMB      97              0.0000000000
     13854       125  DOPC      H7Y           -27.2162876186      -13.6981278297      -11.6654957524  MEMB      97              0.0000000000
     13855       125  DOPC      C38           -28.0601952457      -15.4343879219      -10.8606944143  MEMB      97              0.0000000000
     13856       125  DOPC      H8X           -27.2356889358      -15.4889868156      -10.1180445416  MEMB      97              0.0000000000
     13857       125  DOPC      H8Y           -28.2347956162      -16.4680050055      -11.2287590113  MEMB      97              0.0000000000
     13858       125  DOPC      C39           -29.3276320814      -14.7822083705      -10.3571974898  MEMB      97              0.0000000000
     13859       125  DOPC      H9X           -30.2197044399      -15.1844594318      -10.8595923063  MEMB      97              0.0000000000
     13860       125  DOPC      C310          -29.3596659822      -13.7584267089       -9.4744879405  MEMB      97              0.0000000000
     13861       125  DOPC      H10X          -30.3135502330      -13.3872598812       -9.0715729217  MEMB      97              0.0000000000
     13862       125  DOPC      C311          -28.1864272893      -13.1036880194       -8.7755860230  MEMB      97              0.0000000000
     13863       125  DOPC      H11X          -28.3487438395      -12.0235050921       -8.5726590645  MEMB      97              0.0000000000
     13864       125  DOPC      H11Y          -27.2523486498      -13.2987092116       -9.3446065974  MEMB      97              0.0000000000
     13865       125  DOPC      C312          -27.9856690613      -13.7008950341       -7.4144488132  MEMB      97              0.0000000000
     13866       125  DOPC      H12X          -28.0323038845      -14.8105370161       -7.4434489885  MEMB      97              0.0000000000
     13867       125  DOPC      H12Y          -28.8360262916      -13.3894841093       -6.7708367526  MEMB      97              0.0000000000
     13868       125  DOPC      C313          -26.7239174117      -13.2129834358       -6.6990349950  MEMB      97              0.0000000000
     13869       125  DOPC      H13X          -25.9855582109      -13.9649068316       -7.0508281271  MEMB      97              0.0000000000
     13870       125  DOPC      H13Y          -26.4279082087      -12.1911101240       -7.0191508518  MEMB      97              0.0000000000
     13871       125  DOPC      C314          -26.7906110855      -13.1819345025       -5.2022865129  MEMB      97              0.0000000000
     13872       125  DOPC      H14X          -27.1076946765      -14.2097537090       -4.9241382974  MEMB      97              0.0000000000
     13873       125  DOPC      H14Y          -25.7847682057      -13.1215037608       -4.7343668233  MEMB      97              0.0000000000
     13874       125  DOPC      C315          -27.5469324000      -12.0122328814       -4.5686463068  MEMB      97              0.0000000000
     13875       125  DOPC      H15X          -28.5812624721      -12.0332716180       -4.9736650936  MEMB      97              0.0000000000
     13876       125  DOPC      H15Y          -27.1825922291      -11.0700355257       -5.0310767129  MEMB      97              0.0000000000
     13877       125  DOPC      C316          -27.5356817586      -12.0094851171       -3.0422747662  MEMB      97              0.0000000000
     13878       125  DOPC      H16X          -28.0970787020      -12.9349434465       -2.7919108883  MEMB      97              0.0000000000
     13879       125  DOPC      H16Y          -26.4568101940      -11.9306276432       -2.7890181190  MEMB      97              0.0000000000
     13880       125  DOPC      C317          -28.4191452513      -10.8648079329       -2.3981236894  MEMB      97              0.0000000000
     13881       125  DOPC      H17X          -27.8965087945       -9.8985707785       -2.5641258463  MEMB      97              0.0000000000
     13882       125  DOPC      H17Y          -29.3953092853      -10.8058960790       -2.9253362518  MEMB      97              0.0000000000
     13883       125  DOPC      C318          -28.7712645949      -11.0802842372       -0.8552791250  MEMB      97              0.0000000000
     13884       125  DOPC      H18X          -27.8477608559      -11.3830533835       -0.3169547168  MEMB      97              0.0000000000
     13885       125  DOPC      H18Y          -29.3255724683      -10.2420360597       -0.3815667552  MEMB      97              0.0000000000
     13886       125  DOPC      H18Z          -29.3866141910      -12.0038398146       -0.8032187156  MEMB      97              0.0000000000
     13887       126  DOPC      N              28.2008294277      -11.3852154829      -17.1120425790  MEMB      98              0.0000000000
     13888       126  DOPC      C12            28.4782443740      -11.0595040810      -18.5954698767  MEMB      98              0.0000000000
     13889       126  DOPC      H12A           29.3557705004      -11.6214430867      -18.8793227364  MEMB      98              0.0000000000
     13890       126  DOPC      H12B           28.9054366770      -10.0677954531      -18.5749546869  MEMB      98              0.0000000000
     13891       126  DOPC      C13            29.4858390140      -10.8641885179      -16.4370670844  MEMB      98              0.0000000000
     13892       126  DOPC      H13A           29.3530802707      -10.9020971091      -15.3659282672  MEMB      98              0.0000000000
     13893       126  DOPC      H13B           30.4119544128      -11.3572608132      -16.6931725573  MEMB      98              0.0000000000
     13894       126  DOPC      H13C           29.6476533571       -9.8375451777      -16.7306986520  MEMB      98              0.0000000000
     13895       126  DOPC      C14            27.9273578820      -12.7775166248      -16.8134880862  MEMB      98              0.0000000000
     13896       126  DOPC      H14A           28.6489108747      -13.4454120622      -17.2603402528  MEMB      98              0.0000000000
     13897       126  DOPC      H14B           27.8426423573      -12.9451162330      -15.7499404513  MEMB      98              0.0000000000
     13898       126  DOPC      H14C           26.9843746536      -13.2176478653      -17.1023950040  MEMB      98              0.0000000000
     13899       126  DOPC      C15            26.9922360531      -10.5814723634      -16.6633626204  MEMB      98              0.0000000000
     13900       126  DOPC      H15A           27.0620051897       -9.5219221370      -16.8605568222  MEMB      98              0.0000000000
     13901       126  DOPC      H15B           26.8332372018      -10.8074713385      -15.6193109102  MEMB      98              0.0000000000
     13902       126  DOPC      H15C           26.0716648184      -10.9539005409      -17.0879162762  MEMB      98              0.0000000000
     13903       126  DOPC      C11            27.3817566590      -11.3405352861      -19.6839195736  MEMB      98              0.0000000000
     13904       126  DOPC      H11A           26.6799636013      -10.4835008237      -19.5984832636  MEMB      98              0.0000000000
     13905       126  DOPC      H11B           27.9053573895      -11.3266772100      -20.6637008021  MEMB      98              0.0000000000
     13906       126  DOPC      P              25.8308288387      -13.0166135380      -20.8406932103  MEMB      98              0.0000000000
     13907       126  DOPC      O13            26.8166839785      -13.5035225067      -21.8797821404  MEMB      98              0.0000000000
     13908       126  DOPC      O14            24.8419399690      -11.9340064457      -21.1782984052  MEMB      98              0.0000000000
     13909       126  DOPC      O12            26.6101123739      -12.5401394540      -19.5177927474  MEMB      98              0.0000000000
     13910       126  DOPC      O11            24.9844266301      -14.1710264048      -20.2780837092  MEMB      98              0.0000000000
     13911       126  DOPC      C1             25.5546089922      -15.2633356814      -19.5598464546  MEMB      98              0.0000000000
     13912       126  DOPC      HA             26.6074184820      -15.0636351178      -19.2665328600  MEMB      98              0.0000000000
     13913       126  DOPC      HB             25.6190520201      -16.0977641981      -20.2905291049  MEMB      98              0.0000000000
     13914       126  DOPC      C2             24.6302932685      -15.7893741540      -18.4751260715  MEMB      98              0.0000000000
     13915       126  DOPC      HS             23.7329290019      -16.2575423704      -18.9332491062  MEMB      98              0.0000000000
     13916       126  DOPC      O21            24.3581831375      -14.8493239977      -17.3637301436  MEMB      98              0.0000000000
     13917       126  DOPC      C21            23.4662109900      -13.8696930597      -17.6533570118  MEMB      98              0.0000000000
     13918       126  DOPC      O22            22.7205280068      -13.8612706431      -18.6230610032  MEMB      98              0.0000000000
     13919       126  DOPC      C22            23.5571217665      -12.8602610097      -16.4926015447  MEMB      98              0.0000000000
     13920       126  DOPC      H2R            22.5379188017      -12.5193620241      -16.2109383241  MEMB      98              0.0000000000
     13921       126  DOPC      H2S            24.1372146883      -11.9725400630      -16.8239095572  MEMB      98              0.0000000000
     13922       126  DOPC      C3             25.2699437377      -17.1471554337      -17.8930036939  MEMB      98              0.0000000000
     13923       126  DOPC      HX             25.2922523403      -17.8621880158      -18.7430341208  MEMB      98              0.0000000000
     13924       126  DOPC      HY             24.6636845851      -17.6723205866      -17.1242563240  MEMB      98              0.0000000000
     13925       126  DOPC      O31            26.6407124960      -16.9631628159      -17.4571324630  MEMB      98              0.0000000000
     13926       126  DOPC      C31            26.8148563010      -16.7938002440      -16.1421175267  MEMB      98              0.0000000000
     13927       126  DOPC      O32            25.9636232904      -16.5531690195      -15.3204518608  MEMB      98              0.0000000000
     13928       126  DOPC      C32            28.2967270418      -16.8405950291      -15.8404373695  MEMB      98              0.0000000000
     13929       126  DOPC      H2X            28.7133345678      -17.8080689259      -16.1936421369  MEMB      98              0.0000000000
     13930       126  DOPC      H2Y            28.7774077084      -16.0312871353      -16.4305963835  MEMB      98              0.0000000000
     13931       126  DOPC      C23            24.3757139202      -13.3348805387      -15.3464139830  MEMB      98              0.0000000000
     13932       126  DOPC      H3R            25.4595437256      -13.4011321692      -15.5814558825  MEMB      98              0.0000000000
     13933       126  DOPC      H3S            24.1605206273      -14.4052201562      -15.1405358678  MEMB      98              0.0000000000
     13934       126  DOPC      C24            24.1867891184      -12.4659122838      -14.0630204207  MEMB      98              0.0000000000
     13935       126  DOPC      H4R            23.0985140203      -12.6307179233      -13.9119656702  MEMB      98              0.0000000000
     13936       126  DOPC      H4S            24.2805502652      -11.3783503804      -14.2697539856  MEMB      98              0.0000000000
     13937       126  DOPC      C25            25.0535912617      -12.7672664332      -12.8675519560  MEMB      98              0.0000000000
     13938       126  DOPC      H5R            25.0592146793      -11.8910969562      -12.1844588894  MEMB      98              0.0000000000
     13939       126  DOPC      H5S            26.1022180173      -12.9829171260      -13.1645332922  MEMB      98              0.0000000000
     13940       126  DOPC      C26            24.6241389706      -14.1126302974      -12.2721092690  MEMB      98              0.0000000000
     13941       126  DOPC      H6R            24.0866941191      -14.8103451433      -12.9493595888  MEMB      98              0.0000000000
     13942       126  DOPC      H6S            23.9689463929      -13.8984111257      -11.4008148411  MEMB      98              0.0000000000
     13943       126  DOPC      C27            25.8765433725      -14.8339708616      -11.7092200725  MEMB      98              0.0000000000
     13944       126  DOPC      H7R            26.4817402876      -14.1088386691      -11.1242061544  MEMB      98              0.0000000000
     13945       126  DOPC      H7S            26.5081627293      -15.2532821522      -12.5213508023  MEMB      98              0.0000000000
     13946       126  DOPC      C28            25.5939047143      -15.9169234431      -10.7145592170  MEMB      98              0.0000000000
     13947       126  DOPC      H8R            26.6093956193      -16.3014930446      -10.4796018181  MEMB      98              0.0000000000
     13948       126  DOPC      H8S            25.1430577030      -16.7926930605      -11.2284520005  MEMB      98              0.0000000000
     13949       126  DOPC      C29            24.8100242139      -15.5212430052       -9.5173102731  MEMB      98              0.0000000000
     13950       126  DOPC      H9R            23.7265168075      -15.7070543410       -9.5558560919  MEMB      98              0.0000000000
     13951       126  DOPC      C210           25.2460329334      -15.0060370611       -8.3446560814  MEMB      98              0.0000000000
     13952       126  DOPC      H10R           24.5507798364      -14.8010229775       -7.5172547319  MEMB      98              0.0000000000
     13953       126  DOPC      C211           26.6558007174      -14.7137394987       -7.9730737024  MEMB      98              0.0000000000
     13954       126  DOPC      H11R           26.5836846027      -13.9395388708       -7.1795161629  MEMB      98              0.0000000000
     13955       126  DOPC      H11S           27.1920167526      -14.2051874697       -8.8026324648  MEMB      98              0.0000000000
     13956       126  DOPC      C212           27.4044393780      -15.9843611820       -7.6124918969  MEMB      98              0.0000000000
     13957       126  DOPC      H12R           27.8822540418      -16.5231742316       -8.4584790151  MEMB      98              0.0000000000
     13958       126  DOPC      H12S           26.6658645236      -16.5933598301       -7.0486221122  MEMB      98              0.0000000000
     13959       126  DOPC      C213           28.4286016219      -15.9157982727       -6.4987432018  MEMB      98              0.0000000000
     13960       126  DOPC      H13R           29.1074890211      -15.0607804719       -6.7046005030  MEMB      98              0.0000000000
     13961       126  DOPC      H13S           28.9801439613      -16.8772970572       -6.5738576242  MEMB      98              0.0000000000
     13962       126  DOPC      C214           27.7601921571      -15.7579457787       -5.0914628578  MEMB      98              0.0000000000
     13963       126  DOPC      H14R           26.7422250903      -16.2016379469       -5.0568038420  MEMB      98              0.0000000000
     13964       126  DOPC      H14S           27.6088796377      -14.6674859379       -4.9420550878  MEMB      98              0.0000000000
     13965       126  DOPC      C215           28.6491743551      -16.3575329906       -3.9582179648  MEMB      98              0.0000000000
     13966       126  DOPC      H15R           28.7407611929      -17.4305507061       -4.2312860708  MEMB      98              0.0000000000
     13967       126  DOPC      H15S           28.0449823816      -16.4286270644       -3.0285839899  MEMB      98              0.0000000000
     13968       126  DOPC      C216           29.9853096233      -15.6172608565       -3.6025852145  MEMB      98              0.0000000000
     13969       126  DOPC      H16R           30.6271784460      -15.6100423802       -4.5093781232  MEMB      98              0.0000000000
     13970       126  DOPC      H16S           30.5396960345      -16.1295850565       -2.7874149427  MEMB      98              0.0000000000
     13971       126  DOPC      C217           29.8458218920      -14.2077838352       -3.0094057356  MEMB      98              0.0000000000
     13972       126  DOPC      H17R           29.2720061401      -14.3852983544       -2.0747692462  MEMB      98              0.0000000000
     13973       126  DOPC      H17S           29.3562559519      -13.6272588901       -3.8203545500  MEMB      98              0.0000000000
     13974       126  DOPC      C218           31.2337337918      -13.6632673790       -2.7061663344  MEMB      98              0.0000000000
     13975       126  DOPC      H18R           31.8131477301      -13.5248751785       -3.6439556223  MEMB      98              0.0000000000
     13976       126  DOPC      H18S           31.8151594891      -14.2697519417       -1.9792271109  MEMB      98              0.0000000000
     13977       126  DOPC      H18T           31.0600328055      -12.6408584403       -2.3076323237  MEMB      98              0.0000000000
     13978       126  DOPC      C33            28.6357678129      -16.6050928286      -14.3908577683  MEMB      98              0.0000000000
     13979       126  DOPC      H3X            27.8501303747      -17.1643916447      -13.8392422429  MEMB      98              0.0000000000
     13980       126  DOPC      H3Y            28.4274238188      -15.5624862831      -14.0685455827  MEMB      98              0.0000000000
     13981       126  DOPC      C34            30.0137413451      -17.0399945913      -13.8655066834  MEMB      98              0.0000000000
     13982       126  DOPC      H4X            30.7849024231      -16.5621734480      -14.5068480982  MEMB      98              0.0000000000
     13983       126  DOPC      H4Y            30.1410802264      -18.1429885444      -13.9043769304  MEMB      98              0.0000000000
     13984       126  DOPC      C35            30.2776221226      -16.5768877972      -12.4540750013  MEMB      98              0.0000000000
     13985       126  DOPC      H5X            31.3722367373      -16.3970643665      -12.3924011782  MEMB      98              0.0000000000
     13986       126  DOPC      H5Y            29.9491044444      -17.4083436570      -11.7944701163  MEMB      98              0.0000000000
     13987       126  DOPC      C36            29.6945309072      -15.2762312851      -11.8118400274  MEMB      98              0.0000000000
     13988       126  DOPC      H6X            30.1421595363      -14.4301430799      -12.3758297086  MEMB      98              0.0000000000
     13989       126  DOPC      H6Y            28.5993741927      -15.1485856169      -11.9484394629  MEMB      98              0.0000000000
     13990       126  DOPC      C37            29.9802460894      -15.2277688282      -10.2794824141  MEMB      98              0.0000000000
     13991       126  DOPC      H7X            29.1431744980      -14.7538801087       -9.7235494673  MEMB      98              0.0000000000
     13992       126  DOPC      H7Y            29.9212344125      -16.3232228641      -10.1039291863  MEMB      98              0.0000000000
     13993       126  DOPC      C38            31.1894435418      -14.5205042687       -9.8257715325  MEMB      98              0.0000000000
     13994       126  DOPC      H8X            32.0608945786      -15.0398435829      -10.2787402836  MEMB      98              0.0000000000
     13995       126  DOPC      H8Y            31.2456449578      -14.6661153943       -8.7257902265  MEMB      98              0.0000000000
     13996       126  DOPC      C39            31.4197979272      -13.0969387972      -10.1822622056  MEMB      98              0.0000000000
     13997       126  DOPC      H9X            32.0877857186      -12.9377160898      -11.0415880822  MEMB      98              0.0000000000
     13998       126  DOPC      C310           31.0125732625      -12.0835634438       -9.4921773686  MEMB      98              0.0000000000
     13999       126  DOPC      H10X           31.1802186074      -11.0489668556       -9.8261006687  MEMB      98              0.0000000000
     14000       126  DOPC      C311           30.2330811745      -12.0212707289       -8.1738554400  MEMB      98              0.0000000000
     14001       126  DOPC      H11X           30.8580030521      -11.5192206171       -7.4046097331  MEMB      98              0.0000000000
     14002       126  DOPC      H11Y           30.0271286007      -13.0354383338       -7.7696671450  MEMB      98              0.0000000000
     14003       126  DOPC      C312           28.8087512257      -11.5175534094       -8.2206899874  MEMB      98              0.0000000000
     14004       126  DOPC      H12X           28.2434567521      -12.1138091906       -8.9685141438  MEMB      98              0.0000000000
     14005       126  DOPC      H12Y           28.9336444619      -10.4245483472       -8.3758103173  MEMB      98              0.0000000000
     14006       126  DOPC      C313           28.0910651194      -11.5489059798       -6.9115206406  MEMB      98              0.0000000000
     14007       126  DOPC      H13X           27.9989398646      -12.5986125586       -6.5594543698  MEMB      98              0.0000000000
     14008       126  DOPC      H13Y           28.6675321842      -10.9820203158       -6.1495183353  MEMB      98              0.0000000000
     14009       126  DOPC      C314           26.7205970530      -10.9584323584       -6.9122230711  MEMB      98              0.0000000000
     14010       126  DOPC      H14X           26.7814449357       -9.9369357021       -7.3448471022  MEMB      98              0.0000000000
     14011       126  DOPC      H14Y           26.1389037858      -11.6441323935       -7.5647336647  MEMB      98              0.0000000000
     14012       126  DOPC      C315           26.1565020550      -10.9890060785       -5.4439724765  MEMB      98              0.0000000000
     14013       126  DOPC      H15X           25.1093466543      -10.6325149994       -5.5474150369  MEMB      98              0.0000000000
     14014       126  DOPC      H15Y           26.7333195462      -10.1978865527       -4.9188699851  MEMB      98              0.0000000000
     14015       126  DOPC      C316           26.2337735908      -12.3119141350       -4.6948643098  MEMB      98              0.0000000000
     14016       126  DOPC      H16X           25.6139465299      -13.0918434143       -5.1866428021  MEMB      98              0.0000000000
     14017       126  DOPC      H16Y           27.2727879221      -12.7030896635       -4.6530042928  MEMB      98              0.0000000000
     14018       126  DOPC      C317           25.7722306822      -12.3458866149       -3.1864637532  MEMB      98              0.0000000000
     14019       126  DOPC      H17X           24.6851493476      -12.1328504088       -3.2712623585  MEMB      98              0.0000000000
     14020       126  DOPC      H17Y           25.9469573239      -13.3946295842       -2.8640818885  MEMB      98              0.0000000000
     14021       126  DOPC      C318           26.5648486300      -11.3910435655       -2.3601829536  MEMB      98              0.0000000000
     14022       126  DOPC      H18X           27.6389825133      -11.6734078525       -2.3889482070  MEMB      98              0.0000000000
     14023       126  DOPC      H18Y           26.4465609791      -10.3363629307       -2.6887830489  MEMB      98              0.0000000000
     14024       126  DOPC      H18Z           26.2095052188      -11.5691864410       -1.3227268747  MEMB      98              0.0000000000
     14025       127  DOPC      N             -20.6903183650      -21.5512934706      -20.4412727713  MEMB      99              0.0000000000
     14026       127  DOPC      C12           -20.9612258413      -22.2608053643      -19.1116371480  MEMB      99              0.0000000000
     14027       127  DOPC      H12A          -21.9963034808      -22.5524877273      -19.0119599022  MEMB      99              0.0000000000
     14028       127  DOPC      H12B          -20.5217402793      -21.5598529796      -18.4174338319  MEMB      99              0.0000000000
     14029       127  DOPC      C13           -21.0111258736      -22.5660098958      -21.6012380092  MEMB      99              0.0000000000
     14030       127  DOPC      H13A          -22.0748962232      -22.7296092537      -21.5116396811  MEMB      99              0.0000000000
     14031       127  DOPC      H13B          -20.8209055605      -22.0799231233      -22.5467198971  MEMB      99              0.0000000000
     14032       127  DOPC      H13C          -20.4308516365      -23.4652265930      -21.4560105114  MEMB      99              0.0000000000
     14033       127  DOPC      C14           -19.2931609445      -20.9474675721      -20.5319134417  MEMB      99              0.0000000000
     14034       127  DOPC      H14A          -18.5890435452      -21.7045274769      -20.2196974439  MEMB      99              0.0000000000
     14035       127  DOPC      H14B          -19.1361993760      -20.5952229680      -21.5407180086  MEMB      99              0.0000000000
     14036       127  DOPC      H14C          -19.0572798307      -20.0962481999      -19.9104750452  MEMB      99              0.0000000000
     14037       127  DOPC      C15           -21.6624329935      -20.3586757033      -20.5841494504  MEMB      99              0.0000000000
     14038       127  DOPC      H15A          -21.5740023242      -19.9232498107      -21.5685195436  MEMB      99              0.0000000000
     14039       127  DOPC      H15B          -21.4448768604      -19.7057595965      -19.7518214234  MEMB      99              0.0000000000
     14040       127  DOPC      H15C          -22.6101561922      -20.8166829343      -20.3423849804  MEMB      99              0.0000000000
     14041       127  DOPC      C11           -20.2182352454      -23.5913872399      -18.7729789522  MEMB      99              0.0000000000
     14042       127  DOPC      H11A          -20.6572983235      -23.9641756180      -17.8229403444  MEMB      99              0.0000000000
     14043       127  DOPC      H11B          -20.3362343989      -24.3614884793      -19.5650277090  MEMB      99              0.0000000000
     14044       127  DOPC      P             -17.9889924907      -22.7460276110      -17.5979788886  MEMB      99              0.0000000000
     14045       127  DOPC      O13           -18.5730949520      -21.5082822251      -17.1410628414  MEMB      99              0.0000000000
     14046       127  DOPC      O14           -16.5747027801      -22.6223063970      -17.9880335722  MEMB      99              0.0000000000
     14047       127  DOPC      O12           -18.8223394852      -23.4303373341      -18.7587305942  MEMB      99              0.0000000000
     14048       127  DOPC      O11           -18.1130979310      -23.8135570841      -16.4710043361  MEMB      99              0.0000000000
     14049       127  DOPC      C1            -17.1980396850      -24.9454862861      -16.6222893040  MEMB      99              0.0000000000
     14050       127  DOPC      HA            -16.2189069867      -24.5892045655      -16.2366947485  MEMB      99              0.0000000000
     14051       127  DOPC      HB            -17.1295989756      -25.5191235695      -17.5712766361  MEMB      99              0.0000000000
     14052       127  DOPC      C2            -17.5483685200      -26.0330630378      -15.5122853826  MEMB      99              0.0000000000
     14053       127  DOPC      HS            -17.4382451348      -27.0397203167      -15.9692703770  MEMB      99              0.0000000000
     14054       127  DOPC      O21           -18.8752767160      -25.9367388659      -14.9934947681  MEMB      99              0.0000000000
     14055       127  DOPC      C21           -19.9098411009      -26.2881716790      -15.6437300870  MEMB      99              0.0000000000
     14056       127  DOPC      O22           -19.9834766047      -26.5878884027      -16.8289246293  MEMB      99              0.0000000000
     14057       127  DOPC      C22           -21.1715843667      -26.3481463058      -14.7196274974  MEMB      99              0.0000000000
     14058       127  DOPC      H2R           -20.8319660726      -26.4489584002      -13.6666234570  MEMB      99              0.0000000000
     14059       127  DOPC      H2S           -21.8312520704      -27.1964228291      -15.0017383812  MEMB      99              0.0000000000
     14060       127  DOPC      C3            -16.6590673804      -25.9174663074      -14.1867091012  MEMB      99              0.0000000000
     14061       127  DOPC      HX            -15.5818502453      -26.0386022559      -14.4301225780  MEMB      99              0.0000000000
     14062       127  DOPC      HY            -16.8975467212      -26.6592983055      -13.3947914860  MEMB      99              0.0000000000
     14063       127  DOPC      O31           -16.7167828693      -24.5553995834      -13.6364726244  MEMB      99              0.0000000000
     14064       127  DOPC      C31           -17.3089448007      -24.3746536577      -12.4929049930  MEMB      99              0.0000000000
     14065       127  DOPC      O32           -17.7936354228      -25.2796994147      -11.8723927706  MEMB      99              0.0000000000
     14066       127  DOPC      C32           -17.2401629063      -22.9430930785      -12.0148624586  MEMB      99              0.0000000000
     14067       127  DOPC      H2X           -18.0587995630      -22.3715584865      -12.5022055972  MEMB      99              0.0000000000
     14068       127  DOPC      H2Y           -17.4429162233      -22.9173877412      -10.9228223152  MEMB      99              0.0000000000
     14069       127  DOPC      C23           -21.8985030103      -25.0031338177      -14.7107713659  MEMB      99              0.0000000000
     14070       127  DOPC      H3R           -22.9253439030      -25.2191627024      -14.3457359555  MEMB      99              0.0000000000
     14071       127  DOPC      H3S           -22.1177800216      -24.5966044111      -15.7212031360  MEMB      99              0.0000000000
     14072       127  DOPC      C24           -21.2689087415      -23.9675992460      -13.7509203474  MEMB      99              0.0000000000
     14073       127  DOPC      H4R           -20.5378920472      -23.3488030037      -14.3139718524  MEMB      99              0.0000000000
     14074       127  DOPC      H4S           -20.6253972533      -24.4232408491      -12.9682301335  MEMB      99              0.0000000000
     14075       127  DOPC      C25           -22.2714286850      -22.9507479237      -13.2122614387  MEMB      99              0.0000000000
     14076       127  DOPC      H5R           -23.2249784732      -22.9139244391      -13.7812145201  MEMB      99              0.0000000000
     14077       127  DOPC      H5S           -21.7875992582      -21.9720184377      -13.4179763848  MEMB      99              0.0000000000
     14078       127  DOPC      C26           -22.9108288750      -22.9507967543      -11.8292487931  MEMB      99              0.0000000000
     14079       127  DOPC      H6R           -23.7986380651      -23.6156322094      -11.7651416662  MEMB      99              0.0000000000
     14080       127  DOPC      H6S           -23.3248237799      -21.9329770940      -11.6650165367  MEMB      99              0.0000000000
     14081       127  DOPC      C27           -22.0060847071      -23.2267678944      -10.6525071670  MEMB      99              0.0000000000
     14082       127  DOPC      H7R           -21.6748623279      -24.2720966283      -10.8311148938  MEMB      99              0.0000000000
     14083       127  DOPC      H7S           -22.5151456724      -23.1216317369       -9.6706091804  MEMB      99              0.0000000000
     14084       127  DOPC      C28           -20.7289374149      -22.3619736763      -10.5569440582  MEMB      99              0.0000000000
     14085       127  DOPC      H8R           -20.1728854303      -22.3006837848      -11.5168245867  MEMB      99              0.0000000000
     14086       127  DOPC      H8S           -20.0824602707      -22.8797764981       -9.8164926189  MEMB      99              0.0000000000
     14087       127  DOPC      C29           -20.9981603566      -20.9205135352      -10.0750445116  MEMB      99              0.0000000000
     14088       127  DOPC      H9R           -21.7560059281      -20.4874657364      -10.7444770216  MEMB      99              0.0000000000
     14089       127  DOPC      C210          -20.4615125404      -20.2426928090       -9.0119172558  MEMB      99              0.0000000000
     14090       127  DOPC      H10R          -20.8961792160      -19.2567819082       -8.7904563086  MEMB      99              0.0000000000
     14091       127  DOPC      C211          -19.4534746660      -20.7386248143       -7.9623784786  MEMB      99              0.0000000000
     14092       127  DOPC      H11R          -18.8766841014      -19.8793473645       -7.5583047502  MEMB      99              0.0000000000
     14093       127  DOPC      H11S          -18.6817396303      -21.4042042879       -8.4048154552  MEMB      99              0.0000000000
     14094       127  DOPC      C212          -20.0401879128      -21.4931079097       -6.7298559940  MEMB      99              0.0000000000
     14095       127  DOPC      H12R          -20.6668224525      -22.3400590119       -7.0824526073  MEMB      99              0.0000000000
     14096       127  DOPC      H12S          -20.6051944472      -20.7812037454       -6.0908873037  MEMB      99              0.0000000000
     14097       127  DOPC      C213          -19.0005258120      -21.8661698938       -5.7478903771  MEMB      99              0.0000000000
     14098       127  DOPC      H13R          -18.3662075510      -21.0126126411       -5.4263294222  MEMB      99              0.0000000000
     14099       127  DOPC      H13S          -18.2589351208      -22.5602674333       -6.1979936694  MEMB      99              0.0000000000
     14100       127  DOPC      C214          -19.5119854622      -22.4937289096       -4.4677618212  MEMB      99              0.0000000000
     14101       127  DOPC      H14R          -20.3228626718      -23.2281653296       -4.6611581066  MEMB      99              0.0000000000
     14102       127  DOPC      H14S          -20.0037862223      -21.6934787694       -3.8744213265  MEMB      99              0.0000000000
     14103       127  DOPC      C215          -18.4153544929      -23.2250523775       -3.5988349692  MEMB      99              0.0000000000
     14104       127  DOPC      H15R          -17.5073436982      -22.6118538581       -3.4149179297  MEMB      99              0.0000000000
     14105       127  DOPC      H15S          -18.1628145785      -24.1857325766       -4.0964675123  MEMB      99              0.0000000000
     14106       127  DOPC      C216          -19.1354588977      -23.6382237182       -2.2495116268  MEMB      99              0.0000000000
     14107       127  DOPC      H16R          -18.4534272729      -24.3598372642       -1.7510856799  MEMB      99              0.0000000000
     14108       127  DOPC      H16S          -20.1540622473      -24.0594796972       -2.3884799870  MEMB      99              0.0000000000
     14109       127  DOPC      C217          -19.4621454930      -22.3809506515       -1.3387349577  MEMB      99              0.0000000000
     14110       127  DOPC      H17R          -19.9287429727      -22.7114785702       -0.3861808583  MEMB      99              0.0000000000
     14111       127  DOPC      H17S          -20.1458783741      -21.6869174603       -1.8727287499  MEMB      99              0.0000000000
     14112       127  DOPC      C218          -18.2249037601      -21.4584861590       -0.9656744958  MEMB      99              0.0000000000
     14113       127  DOPC      H18R          -18.4463747403      -20.6302446944       -0.2590723992  MEMB      99              0.0000000000
     14114       127  DOPC      H18S          -17.9169472955      -20.9722400274       -1.9159627444  MEMB      99              0.0000000000
     14115       127  DOPC      H18T          -17.3871321282      -22.0706283002       -0.5685069395  MEMB      99              0.0000000000
     14116       127  DOPC      C33           -15.8843539787      -22.3663955082      -12.3569545437  MEMB      99              0.0000000000
     14117       127  DOPC      H3X           -15.3835448242      -22.5575111047      -13.3300868025  MEMB      99              0.0000000000
     14118       127  DOPC      H3Y           -15.2095482135      -22.7912379010      -11.5833482906  MEMB      99              0.0000000000
     14119       127  DOPC      C34           -15.7143446696      -20.8800220000      -12.0821179107  MEMB      99              0.0000000000
     14120       127  DOPC      H4X           -16.3180257029      -20.6933009650      -11.1683206471  MEMB      99              0.0000000000
     14121       127  DOPC      H4Y           -16.1387581717      -20.3719119145      -12.9743163776  MEMB      99              0.0000000000
     14122       127  DOPC      C35           -14.3542072674      -20.2518402833      -11.8526151157  MEMB      99              0.0000000000
     14123       127  DOPC      H5X           -14.4919776180      -19.2110636843      -11.4891258482  MEMB      99              0.0000000000
     14124       127  DOPC      H5Y           -13.8988104038      -20.1412088470      -12.8599362665  MEMB      99              0.0000000000
     14125       127  DOPC      C36           -13.4051650767      -21.0489795542      -10.8771946897  MEMB      99              0.0000000000
     14126       127  DOPC      H6X           -12.9823553871      -21.9376381691      -11.3927901435  MEMB      99              0.0000000000
     14127       127  DOPC      H6Y           -12.5165944886      -20.4188238629      -10.6588663530  MEMB      99              0.0000000000
     14128       127  DOPC      C37           -13.9913069090      -21.5150606126       -9.5296126762  MEMB      99              0.0000000000
     14129       127  DOPC      H7X           -14.1847424022      -20.5331576692       -9.0471493785  MEMB      99              0.0000000000
     14130       127  DOPC      H7Y           -14.9769147955      -21.9720137866       -9.7621899273  MEMB      99              0.0000000000
     14131       127  DOPC      C38           -12.9856126536      -22.3205987963       -8.6168873495  MEMB      99              0.0000000000
     14132       127  DOPC      H8X           -13.4127211293      -22.3175171172       -7.5912704783  MEMB      99              0.0000000000
     14133       127  DOPC      H8Y           -12.0657694259      -21.6984994054       -8.5822275473  MEMB      99              0.0000000000
     14134       127  DOPC      C39           -12.7739334134      -23.7618800305       -9.1289614713  MEMB      99              0.0000000000
     14135       127  DOPC      H9X           -12.1794033818      -23.8744053370      -10.0475868946  MEMB      99              0.0000000000
     14136       127  DOPC      C310          -13.3160466036      -24.8654207961       -8.5774271301  MEMB      99              0.0000000000
     14137       127  DOPC      H10X          -12.9762092923      -25.8498179855       -8.9316484101  MEMB      99              0.0000000000
     14138       127  DOPC      C311          -14.2236641396      -24.9425070569       -7.3846696474  MEMB      99              0.0000000000
     14139       127  DOPC      H11X          -14.8077699707      -25.8844529256       -7.4613463893  MEMB      99              0.0000000000
     14140       127  DOPC      H11Y          -14.9481006877      -24.1030601310       -7.4542518101  MEMB      99              0.0000000000
     14141       127  DOPC      C312          -13.6529226008      -24.9586652080       -5.9156173476  MEMB      99              0.0000000000
     14142       127  DOPC      H12X          -13.1380582298      -24.0033904021       -5.6775297598  MEMB      99              0.0000000000
     14143       127  DOPC      H12Y          -12.8182362713      -25.6783046668       -6.0561125688  MEMB      99              0.0000000000
     14144       127  DOPC      C313          -14.6847293640      -25.5200121796       -4.9284216488  MEMB      99              0.0000000000
     14145       127  DOPC      H13X          -14.3569985442      -25.2031673942       -3.9152466329  MEMB      99              0.0000000000
     14146       127  DOPC      H13Y          -15.6902052713      -25.1529668137       -5.2261068894  MEMB      99              0.0000000000
     14147       127  DOPC      C314          -14.9535793130      -27.0152656578       -4.8804610821  MEMB      99              0.0000000000
     14148       127  DOPC      H14X          -15.4989179894      -27.3987129983       -5.7692218893  MEMB      99              0.0000000000
     14149       127  DOPC      H14Y          -14.0512486676      -27.6525102035       -4.7619734819  MEMB      99              0.0000000000
     14150       127  DOPC      C315          -16.0191131614      -27.4000722247       -3.7653896834  MEMB      99              0.0000000000
     14151       127  DOPC      H15X          -16.6975303160      -26.5223249406       -3.7051374568  MEMB      99              0.0000000000
     14152       127  DOPC      H15Y          -15.4809190199      -27.4873524477       -2.7973755294  MEMB      99              0.0000000000
     14153       127  DOPC      C316          -16.5887881447      -28.7432061481       -4.0813881052  MEMB      99              0.0000000000
     14154       127  DOPC      H16X          -17.3934801944      -28.7095154843       -4.8466702568  MEMB      99              0.0000000000
     14155       127  DOPC      H16Y          -15.7709789561      -29.3663527041       -4.5023362460  MEMB      99              0.0000000000
     14156       127  DOPC      C317          -17.0837173335      -29.3807467402       -2.7791287351  MEMB      99              0.0000000000
     14157       127  DOPC      H17X          -17.4104303496      -30.3986501901       -3.0815397824  MEMB      99              0.0000000000
     14158       127  DOPC      H17Y          -16.1037642883      -29.4917680777       -2.2675745294  MEMB      99              0.0000000000
     14159       127  DOPC      C318          -18.0887789487      -28.6791038125       -1.7958296589  MEMB      99              0.0000000000
     14160       127  DOPC      H18X          -19.0825962181      -28.5484114038       -2.2749615256  MEMB      99              0.0000000000
     14161       127  DOPC      H18Y          -18.3489149271      -29.3446254118       -0.9451042909  MEMB      99              0.0000000000
     14162       127  DOPC      H18Z          -17.8145499863      -27.6749926193       -1.4073962705  MEMB      99              0.0000000000
     14163       128  DOPC      N              -8.2759482073       25.6681603324      -18.0514379326  MEMB      100             0.0000000000
     14164       128  DOPC      C12            -9.4623984219       25.5822205145      -18.9414600893  MEMB      100             0.0000000000
     14165       128  DOPC      H12A          -10.0842057586       24.7185693699      -18.7574429608  MEMB      100             0.0000000000
     14166       128  DOPC      H12B           -8.9759391016       25.5136859691      -19.9032606710  MEMB      100             0.0000000000
     14167       128  DOPC      C13            -8.6924779884       25.8961621204      -16.5670304212  MEMB      100             0.0000000000
     14168       128  DOPC      H13A           -9.3416738853       25.1413352093      -16.1484839287  MEMB      100             0.0000000000
     14169       128  DOPC      H13B           -7.7774642586       25.8822332167      -15.9934838694  MEMB      100             0.0000000000
     14170       128  DOPC      H13C           -9.1081791362       26.8843903515      -16.4366566557  MEMB      100             0.0000000000
     14171       128  DOPC      C14            -7.3817218300       26.8477577813      -18.5060321507  MEMB      100             0.0000000000
     14172       128  DOPC      H14A           -7.9204892833       27.7790184067      -18.4117805194  MEMB      100             0.0000000000
     14173       128  DOPC      H14B           -6.5238394338       26.9161875351      -17.8535332380  MEMB      100             0.0000000000
     14174       128  DOPC      H14C           -7.0841444168       26.7133474451      -19.5354890858  MEMB      100             0.0000000000
     14175       128  DOPC      C15            -7.3767673189       24.4532220032      -17.9890930163  MEMB      100             0.0000000000
     14176       128  DOPC      H15A           -6.9239082491       24.3667239207      -18.9657386809  MEMB      100             0.0000000000
     14177       128  DOPC      H15B           -8.0375195892       23.6407700083      -17.7250324390  MEMB      100             0.0000000000
     14178       128  DOPC      H15C           -6.6779796991       24.5926103210      -17.1775101316  MEMB      100             0.0000000000
     14179       128  DOPC      C11           -10.3848095295       26.8095470001      -19.0746960476  MEMB      100             0.0000000000
     14180       128  DOPC      H11A          -11.3293907829       26.4920804024      -19.5659213523  MEMB      100             0.0000000000
     14181       128  DOPC      H11B          -10.6424605782       27.2315728882      -18.0797934645  MEMB      100             0.0000000000
     14182       128  DOPC      P             -10.6630341978       29.1308743517      -20.0222237798  MEMB      100             0.0000000000
     14183       128  DOPC      O13           -12.1014739636       28.7213151650      -20.1438697190  MEMB      100             0.0000000000
     14184       128  DOPC      O14           -10.0795927932       29.8148006313      -21.2036966907  MEMB      100             0.0000000000
     14185       128  DOPC      O12            -9.7247834208       27.9091957004      -19.7530122401  MEMB      100             0.0000000000
     14186       128  DOPC      O11           -10.5524846608       30.0906028019      -18.7474479094  MEMB      100             0.0000000000
     14187       128  DOPC      C1             -9.2807753341       30.2505901806      -18.0850247878  MEMB      100             0.0000000000
     14188       128  DOPC      HA             -9.0226126973       31.3283945124      -18.1625563159  MEMB      100             0.0000000000
     14189       128  DOPC      HB             -8.4686622517       29.7285416052      -18.6348052957  MEMB      100             0.0000000000
     14190       128  DOPC      C2             -9.3152054870       29.6970269936      -16.5854531628  MEMB      100             0.0000000000
     14191       128  DOPC      HS             -9.6613541938       28.6526708820      -16.7397976021  MEMB      100             0.0000000000
     14192       128  DOPC      O21           -10.2571145798       30.3181318154      -15.7315550254  MEMB      100             0.0000000000
     14193       128  DOPC      C21           -11.5797141747       30.1186407994      -15.9073637049  MEMB      100             0.0000000000
     14194       128  DOPC      O22           -12.0198472008       29.2316789020      -16.6270440636  MEMB      100             0.0000000000
     14195       128  DOPC      C22           -12.4298127587       31.1680336321      -15.1114019067  MEMB      100             0.0000000000
     14196       128  DOPC      H2R           -13.4367972655       30.7003631236      -15.0715637838  MEMB      100             0.0000000000
     14197       128  DOPC      H2S           -12.4217863829       31.9263892539      -15.9232846933  MEMB      100             0.0000000000
     14198       128  DOPC      C3             -7.8962375811       29.8181049038      -15.9112298291  MEMB      100             0.0000000000
     14199       128  DOPC      HX             -7.8054543712       30.9084987343      -15.7185629700  MEMB      100             0.0000000000
     14200       128  DOPC      HY             -7.0718975526       29.5201667665      -16.5938848042  MEMB      100             0.0000000000
     14201       128  DOPC      O31            -7.8697374248       29.1106584751      -14.6565561262  MEMB      100             0.0000000000
     14202       128  DOPC      C31            -6.8005522331       29.4027890556      -13.8709963581  MEMB      100             0.0000000000
     14203       128  DOPC      O32            -6.0609045378       30.3317060835      -14.0887265008  MEMB      100             0.0000000000
     14204       128  DOPC      C32            -6.7664321813       28.4989389751      -12.6368840629  MEMB      100             0.0000000000
     14205       128  DOPC      H2X            -7.7975944798       28.1176612190      -12.4767190598  MEMB      100             0.0000000000
     14206       128  DOPC      H2Y            -5.9565766660       27.7394573250      -12.6774186376  MEMB      100             0.0000000000
     14207       128  DOPC      C23           -11.8594297106       31.6426511075      -13.7109270683  MEMB      100             0.0000000000
     14208       128  DOPC      H3R           -12.5770163756       32.2899124006      -13.1628001621  MEMB      100             0.0000000000
     14209       128  DOPC      H3S           -10.9570142262       32.2512589804      -13.9335563895  MEMB      100             0.0000000000
     14210       128  DOPC      C24           -11.5628437037       30.3825309378      -12.8432056848  MEMB      100             0.0000000000
     14211       128  DOPC      H4R           -11.1291092954       29.5258387970      -13.4020208374  MEMB      100             0.0000000000
     14212       128  DOPC      H4S           -12.5516651059       30.1079570645      -12.4175741375  MEMB      100             0.0000000000
     14213       128  DOPC      C25           -10.5393606449       30.6959340001      -11.6841493027  MEMB      100             0.0000000000
     14214       128  DOPC      H5R            -9.9741825044       31.6230226523      -11.9195251158  MEMB      100             0.0000000000
     14215       128  DOPC      H5S            -9.8187863317       29.8696104784      -11.5044738570  MEMB      100             0.0000000000
     14216       128  DOPC      C26           -11.1997663809       31.0738065112      -10.3365645475  MEMB      100             0.0000000000
     14217       128  DOPC      H6R           -12.0195263129       31.8014373915      -10.5178590391  MEMB      100             0.0000000000
     14218       128  DOPC      H6S           -10.5317394504       31.5512056447       -9.5881322996  MEMB      100             0.0000000000
     14219       128  DOPC      C27           -11.8023477492       29.7764592883       -9.6927919272  MEMB      100             0.0000000000
     14220       128  DOPC      H7R           -11.7934498408       28.9901891658      -10.4776616642  MEMB      100             0.0000000000
     14221       128  DOPC      H7S           -12.8744522516       30.0077377200       -9.5155257832  MEMB      100             0.0000000000
     14222       128  DOPC      C28           -11.1750180949       29.4316584226       -8.3269430483  MEMB      100             0.0000000000
     14223       128  DOPC      H8R           -10.0942759857       29.4195220032       -8.5841789689  MEMB      100             0.0000000000
     14224       128  DOPC      H8S           -11.4889153488       28.3825836805       -8.1392421893  MEMB      100             0.0000000000
     14225       128  DOPC      C29           -11.4554695860       30.4723031628       -7.2954776488  MEMB      100             0.0000000000
     14226       128  DOPC      H9R           -12.4282680923       30.9857840443       -7.2962304752  MEMB      100             0.0000000000
     14227       128  DOPC      C210          -10.5067957207       30.8214676450       -6.4181511010  MEMB      100             0.0000000000
     14228       128  DOPC      H10R          -10.8001504444       31.5242778827       -5.6244255402  MEMB      100             0.0000000000
     14229       128  DOPC      C211           -9.1062196037       30.2254932772       -6.3838387498  MEMB      100             0.0000000000
     14230       128  DOPC      H11R           -8.4855007918       30.8517791854       -5.7079726264  MEMB      100             0.0000000000
     14231       128  DOPC      H11S           -8.6398750496       30.1056929477       -7.3850834484  MEMB      100             0.0000000000
     14232       128  DOPC      C212           -9.0054171724       28.8497365986       -5.7147235170  MEMB      100             0.0000000000
     14233       128  DOPC      H12R           -7.9336633944       28.6576665405       -5.4938752287  MEMB      100             0.0000000000
     14234       128  DOPC      H12S           -9.3474012685       27.9913543083       -6.3316089266  MEMB      100             0.0000000000
     14235       128  DOPC      C213           -9.6402581989       28.7726188059       -4.2686965895  MEMB      100             0.0000000000
     14236       128  DOPC      H13R           -9.3042048020       27.7617808068       -3.9531084641  MEMB      100             0.0000000000
     14237       128  DOPC      H13S          -10.7436672616       28.8150472583       -4.3912090521  MEMB      100             0.0000000000
     14238       128  DOPC      C214           -9.2852302798       29.9067837090       -3.2006578648  MEMB      100             0.0000000000
     14239       128  DOPC      H14R           -9.7341838585       30.8706083335       -3.5228436899  MEMB      100             0.0000000000
     14240       128  DOPC      H14S           -8.1871531995       30.0469135541       -3.1062566851  MEMB      100             0.0000000000
     14241       128  DOPC      C215           -9.9589903114       29.6921995356       -1.8395459705  MEMB      100             0.0000000000
     14242       128  DOPC      H15R           -9.7120942317       28.7423708617       -1.3187876573  MEMB      100             0.0000000000
     14243       128  DOPC      H15S          -11.0532702017       29.7609267673       -2.0188475339  MEMB      100             0.0000000000
     14244       128  DOPC      C216           -9.5066561511       30.8338739059       -0.9779751848  MEMB      100             0.0000000000
     14245       128  DOPC      H16R           -9.7317151480       31.8207158135       -1.4360279165  MEMB      100             0.0000000000
     14246       128  DOPC      H16S           -8.4309927334       30.6534622628       -0.7665023597  MEMB      100             0.0000000000
     14247       128  DOPC      C217          -10.1725965829       30.7228815683        0.4466686741  MEMB      100             0.0000000000
     14248       128  DOPC      H17R          -11.2513357762       30.9653067241        0.3377076692  MEMB      100             0.0000000000
     14249       128  DOPC      H17S           -9.7121902222       31.5510876797        1.0266861608  MEMB      100             0.0000000000
     14250       128  DOPC      C218           -9.9422808015       29.4033475747        1.2152205645  MEMB      100             0.0000000000
     14251       128  DOPC      H18R           -8.8497467675       29.3213857641        1.3995362670  MEMB      100             0.0000000000
     14252       128  DOPC      H18S          -10.2691324088       28.5649293926        0.5636487232  MEMB      100             0.0000000000
     14253       128  DOPC      H18T          -10.5384211871       29.4041081981        2.1527357389  MEMB      100             0.0000000000
     14254       128  DOPC      C33            -6.3718901852       29.4048316698      -11.4144080494  MEMB      100             0.0000000000
     14255       128  DOPC      H3X            -7.1773476128       30.1478534291      -11.2314384210  MEMB      100             0.0000000000
     14256       128  DOPC      H3Y            -5.4412734572       29.9463412798      -11.6883444319  MEMB      100             0.0000000000
     14257       128  DOPC      C34            -6.1337798650       28.7987325779      -10.0487884149  MEMB      100             0.0000000000
     14258       128  DOPC      H4X            -6.0820503322       29.6380880115       -9.3227534985  MEMB      100             0.0000000000
     14259       128  DOPC      H4Y            -5.2615676820       28.1119017254      -10.0060122615  MEMB      100             0.0000000000
     14260       128  DOPC      C35            -7.3248665105       27.9922445822       -9.5543115616  MEMB      100             0.0000000000
     14261       128  DOPC      H5X            -8.1999123508       28.3403344822      -10.1437594045  MEMB      100             0.0000000000
     14262       128  DOPC      H5Y            -7.4560561207       28.1525863557       -8.4627981505  MEMB      100             0.0000000000
     14263       128  DOPC      C36            -7.1284457639       26.4916625099       -9.9883879105  MEMB      100             0.0000000000
     14264       128  DOPC      H6X            -7.1300131750       26.4046166081      -11.0959720257  MEMB      100             0.0000000000
     14265       128  DOPC      H6Y            -6.0792218521       26.2494245083       -9.7149448086  MEMB      100             0.0000000000
     14266       128  DOPC      C37            -7.9598183446       25.4180746226       -9.3095117617  MEMB      100             0.0000000000
     14267       128  DOPC      H7X            -7.5169232045       24.4090256813       -9.4508813088  MEMB      100             0.0000000000
     14268       128  DOPC      H7Y            -7.8717599211       25.6217416046       -8.2208944531  MEMB      100             0.0000000000
     14269       128  DOPC      C38            -9.4208957707       25.3913662752       -9.7836099043  MEMB      100             0.0000000000
     14270       128  DOPC      H8X            -9.3862451845       25.5979749555      -10.8746791845  MEMB      100             0.0000000000
     14271       128  DOPC      H8Y            -9.9302371306       26.2403735104       -9.2795465639  MEMB      100             0.0000000000
     14272       128  DOPC      C39           -10.0658814366       24.0241622322       -9.7116342960  MEMB      100             0.0000000000
     14273       128  DOPC      H9X           -10.1840731849       23.3927970408      -10.6046116508  MEMB      100             0.0000000000
     14274       128  DOPC      C310          -10.5716712739       23.5535648075       -8.5315909293  MEMB      100             0.0000000000
     14275       128  DOPC      H10X          -11.1149887228       22.5971216890       -8.5363165803  MEMB      100             0.0000000000
     14276       128  DOPC      C311          -10.6661602835       24.2155247180       -7.1573024140  MEMB      100             0.0000000000
     14277       128  DOPC      H11X           -9.9276578838       25.0448742416       -7.1239152458  MEMB      100             0.0000000000
     14278       128  DOPC      H11Y          -10.5121865990       23.6044391271       -6.2423232517  MEMB      100             0.0000000000
     14279       128  DOPC      C312          -12.0807869606       24.9293191356       -7.0987639024  MEMB      100             0.0000000000
     14280       128  DOPC      H12X          -12.8227189193       24.1120954791       -6.9722591796  MEMB      100             0.0000000000
     14281       128  DOPC      H12Y          -12.3045705378       25.4123357986       -8.0739241579  MEMB      100             0.0000000000
     14282       128  DOPC      C313          -12.3443201988       25.8642705672       -5.9072346666  MEMB      100             0.0000000000
     14283       128  DOPC      H13X          -11.6935227724       26.7474916344       -6.0824597489  MEMB      100             0.0000000000
     14284       128  DOPC      H13Y          -13.3527033517       26.2664628388       -6.1432978502  MEMB      100             0.0000000000
     14285       128  DOPC      C314          -12.2858409510       25.2425479048       -4.5546712524  MEMB      100             0.0000000000
     14286       128  DOPC      H14X          -12.7757381186       24.2459205475       -4.5871657893  MEMB      100             0.0000000000
     14287       128  DOPC      H14Y          -11.2731287207       25.1483398925       -4.1076139391  MEMB      100             0.0000000000
     14288       128  DOPC      C315          -13.2428957591       25.8044315114       -3.4369296975  MEMB      100             0.0000000000
     14289       128  DOPC      H15X          -13.1137044145       25.2565162986       -2.4791111255  MEMB      100             0.0000000000
     14290       128  DOPC      H15Y          -14.3039625683       25.6204096895       -3.7100491222  MEMB      100             0.0000000000
     14291       128  DOPC      C316          -13.1586848800       27.3385886391       -3.1919535192  MEMB      100             0.0000000000
     14292       128  DOPC      H16X          -12.2201226947       27.5364683885       -2.6313600733  MEMB      100             0.0000000000
     14293       128  DOPC      H16Y          -13.1610683266       27.7399281513       -4.2279273741  MEMB      100             0.0000000000
     14294       128  DOPC      C317          -14.3790674040       28.0404618801       -2.5294851389  MEMB      100             0.0000000000
     14295       128  DOPC      H17X          -14.0789173107       29.1096425637       -2.4965689067  MEMB      100             0.0000000000
     14296       128  DOPC      H17Y          -15.2894585958       27.9469747047       -3.1593815624  MEMB      100             0.0000000000
     14297       128  DOPC      C318          -14.7818228545       27.5906390027       -1.1456628466  MEMB      100             0.0000000000
     14298       128  DOPC      H18X          -13.9107719083       27.6626205218       -0.4597974382  MEMB      100             0.0000000000
     14299       128  DOPC      H18Y          -15.5775506429       28.2813959471       -0.7935357264  MEMB      100             0.0000000000
     14300       128  DOPC      H18Z          -15.1865358730       26.5569493544       -1.1007842984  MEMB      100             0.0000000000
     14301       129  DOPC      N              24.2895705143       13.0749584326      -18.1880221158  MEMB      101             0.0000000000
     14302       129  DOPC      C12            23.2788216452       13.3000651080      -19.2604361093  MEMB      101             0.0000000000
     14303       129  DOPC      H12A           22.7253738922       12.3966851920      -19.4701982566  MEMB      101             0.0000000000
     14304       129  DOPC      H12B           23.6654404583       13.7346081017      -20.1704352036  MEMB      101             0.0000000000
     14305       129  DOPC      C13            25.3421637759       14.1374326552      -18.1781530669  MEMB      101             0.0000000000
     14306       129  DOPC      H13A           25.9502370077       14.1605571531      -19.0704043809  MEMB      101             0.0000000000
     14307       129  DOPC      H13B           24.8480533454       15.0972912140      -18.2085902348  MEMB      101             0.0000000000
     14308       129  DOPC      H13C           25.9362969476       14.0875055771      -17.2776458422  MEMB      101             0.0000000000
     14309       129  DOPC      C14            24.9280476148       11.6915004113      -18.4812524009  MEMB      101             0.0000000000
     14310       129  DOPC      H14A           25.4809800589       11.7466282354      -19.4073338265  MEMB      101             0.0000000000
     14311       129  DOPC      H14B           25.5851744112       11.4185977522      -17.6687818645  MEMB      101             0.0000000000
     14312       129  DOPC      H14C           24.1709192076       10.9501914625      -18.6901007635  MEMB      101             0.0000000000
     14313       129  DOPC      C15            23.6102068722       12.7384221350      -16.8569356983  MEMB      101             0.0000000000
     14314       129  DOPC      H15A           23.0259549647       11.8479881377      -17.0363147719  MEMB      101             0.0000000000
     14315       129  DOPC      H15B           22.9438535307       13.5302857141      -16.5481877916  MEMB      101             0.0000000000
     14316       129  DOPC      H15C           24.3403690346       12.6347325509      -16.0679416669  MEMB      101             0.0000000000
     14317       129  DOPC      C11            22.2683056564       14.4653784663      -18.9409747863  MEMB      101             0.0000000000
     14318       129  DOPC      H11A           21.4852802683       14.4089490961      -19.7271096904  MEMB      101             0.0000000000
     14319       129  DOPC      H11B           21.6939659531       14.3926842678      -17.9927288049  MEMB      101             0.0000000000
     14320       129  DOPC      P              22.8619423132       16.9227997443      -19.8634986997  MEMB      101             0.0000000000
     14321       129  DOPC      O13            22.8867388558       16.3893220956      -21.2420568593  MEMB      101             0.0000000000
     14322       129  DOPC      O14            24.0364017066       17.8698538552      -19.5125506677  MEMB      101             0.0000000000
     14323       129  DOPC      O12            22.9016240059       15.6991749095      -18.8560721676  MEMB      101             0.0000000000
     14324       129  DOPC      O11            21.4800890371       17.7195994827      -19.6200474372  MEMB      101             0.0000000000
     14325       129  DOPC      C1             20.4980792212       17.5119264453      -18.6143709749  MEMB      101             0.0000000000
     14326       129  DOPC      HA             20.1887337060       16.4477836742      -18.5354621154  MEMB      101             0.0000000000
     14327       129  DOPC      HB             19.5701125707       18.0633738582      -18.8772481941  MEMB      101             0.0000000000
     14328       129  DOPC      C2             20.9429164100       17.9926805204      -17.2477712267  MEMB      101             0.0000000000
     14329       129  DOPC      HS             21.1752682337       19.0771149548      -17.3136155782  MEMB      101             0.0000000000
     14330       129  DOPC      O21            22.0071070994       17.2559608781      -16.7002241661  MEMB      101             0.0000000000
     14331       129  DOPC      C21            22.9680629172       17.9499045077      -15.9779374336  MEMB      101             0.0000000000
     14332       129  DOPC      O22            22.9253688407       19.1616003708      -15.7027255931  MEMB      101             0.0000000000
     14333       129  DOPC      C22            24.0099438211       16.9730946429      -15.5986606385  MEMB      101             0.0000000000
     14334       129  DOPC      H2R            24.5957289758       16.7456640500      -16.5148768821  MEMB      101             0.0000000000
     14335       129  DOPC      H2S            23.6354542737       15.9669053680      -15.3128952199  MEMB      101             0.0000000000
     14336       129  DOPC      C3             19.6643112981       17.9401962961      -16.3430944018  MEMB      101             0.0000000000
     14337       129  DOPC      HX             18.8190271066       18.4545147689      -16.8483589072  MEMB      101             0.0000000000
     14338       129  DOPC      HY             19.7532160160       18.6437917064      -15.4878921788  MEMB      101             0.0000000000
     14339       129  DOPC      O31            19.2872091846       16.6145643653      -16.0497734336  MEMB      101             0.0000000000
     14340       129  DOPC      C31            19.8125731248       16.1396964823      -14.9297008322  MEMB      101             0.0000000000
     14341       129  DOPC      O32            20.6560547885       16.6652663842      -14.2494655224  MEMB      101             0.0000000000
     14342       129  DOPC      C32            19.4496321484       14.5824695625      -14.9830345650  MEMB      101             0.0000000000
     14343       129  DOPC      H2X            18.8317546165       14.4669526455      -14.0669534915  MEMB      101             0.0000000000
     14344       129  DOPC      H2Y            18.7802159970       14.2406904042      -15.8011969641  MEMB      101             0.0000000000
     14345       129  DOPC      C23            25.0106832132       17.5312935299      -14.5939220986  MEMB      101             0.0000000000
     14346       129  DOPC      H3R            25.5211299526       18.4035067276      -15.0554518528  MEMB      101             0.0000000000
     14347       129  DOPC      H3S            25.7939033850       16.7721610718      -14.3827231632  MEMB      101             0.0000000000
     14348       129  DOPC      C24            24.4802289829       18.1367524559      -13.2349769407  MEMB      101             0.0000000000
     14349       129  DOPC      H4R            23.5447413231       18.7330881190      -13.2947066367  MEMB      101             0.0000000000
     14350       129  DOPC      H4S            25.2446133759       18.8133208656      -12.7964651213  MEMB      101             0.0000000000
     14351       129  DOPC      C25            24.2072631379       17.0880707696      -12.1233283321  MEMB      101             0.0000000000
     14352       129  DOPC      H5R            25.1952588884       16.8051547748      -11.7012570145  MEMB      101             0.0000000000
     14353       129  DOPC      H5S            23.6907323213       16.1768545758      -12.4937359608  MEMB      101             0.0000000000
     14354       129  DOPC      C26            23.0714009282       17.5660945685      -11.1281617487  MEMB      101             0.0000000000
     14355       129  DOPC      H6R            22.1485584715       17.5232338581      -11.7452890757  MEMB      101             0.0000000000
     14356       129  DOPC      H6S            23.2347962471       18.5822119090      -10.7096786228  MEMB      101             0.0000000000
     14357       129  DOPC      C27            22.8618006178       16.5863872596      -10.0523739507  MEMB      101             0.0000000000
     14358       129  DOPC      H7R            23.8505737379       16.3620214455       -9.5981617225  MEMB      101             0.0000000000
     14359       129  DOPC      H7S            22.4225090945       15.6416648144      -10.4381766119  MEMB      101             0.0000000000
     14360       129  DOPC      C28            21.8985487612       17.0311172884       -8.8605078472  MEMB      101             0.0000000000
     14361       129  DOPC      H8R            22.3658087688       17.9274635602       -8.3994732608  MEMB      101             0.0000000000
     14362       129  DOPC      H8S            21.8725389672       16.1948185123       -8.1295837092  MEMB      101             0.0000000000
     14363       129  DOPC      C29            20.5020108686       17.2650552194       -9.3824428923  MEMB      101             0.0000000000
     14364       129  DOPC      H9R            20.3180946641       18.3495551659       -9.3765709731  MEMB      101             0.0000000000
     14365       129  DOPC      C210           19.4998716671       16.4091447517       -9.7962010298  MEMB      101             0.0000000000
     14366       129  DOPC      H10R           18.4996151177       16.7615544586      -10.0882531302  MEMB      101             0.0000000000
     14367       129  DOPC      C211           19.6652388899       14.8618655024       -9.8451742760  MEMB      101             0.0000000000
     14368       129  DOPC      H11R           20.7409054294       14.6172814500       -9.9772381744  MEMB      101             0.0000000000
     14369       129  DOPC      H11S           19.1837043055       14.2853093093      -10.6637266150  MEMB      101             0.0000000000
     14370       129  DOPC      C212           19.0786232323       14.1370073956       -8.6278304408  MEMB      101             0.0000000000
     14371       129  DOPC      H12R           19.0478303645       13.0264518939       -8.6215392994  MEMB      101             0.0000000000
     14372       129  DOPC      H12S           18.0105458908       14.4425932526       -8.6156129474  MEMB      101             0.0000000000
     14373       129  DOPC      C213           19.4968933238       14.4680471126       -7.1591997109  MEMB      101             0.0000000000
     14374       129  DOPC      H13R           18.7304899822       13.9423169939       -6.5504679929  MEMB      101             0.0000000000
     14375       129  DOPC      H13S           19.4011776135       15.5481478314       -6.9172459127  MEMB      101             0.0000000000
     14376       129  DOPC      C214           20.9576031273       14.1959746838       -6.8007661338  MEMB      101             0.0000000000
     14377       129  DOPC      H14R           21.1678574160       14.8215050444       -5.9069961496  MEMB      101             0.0000000000
     14378       129  DOPC      H14S           21.7617509132       14.2791553661       -7.5628348459  MEMB      101             0.0000000000
     14379       129  DOPC      C215           21.1790872302       12.7106467982       -6.2668509993  MEMB      101             0.0000000000
     14380       129  DOPC      H15R           22.2703704696       12.5088162429       -6.2150216532  MEMB      101             0.0000000000
     14381       129  DOPC      H15S           20.7561887994       12.1036141377       -7.0956995490  MEMB      101             0.0000000000
     14382       129  DOPC      C216           20.4728894161       12.2743845584       -4.9281288374  MEMB      101             0.0000000000
     14383       129  DOPC      H16R           20.6248940304       11.1843467167       -4.7763632972  MEMB      101             0.0000000000
     14384       129  DOPC      H16S           19.3758584416       12.3645828391       -5.0788226605  MEMB      101             0.0000000000
     14385       129  DOPC      C217           20.8472648858       13.0991182401       -3.7379052191  MEMB      101             0.0000000000
     14386       129  DOPC      H17R           20.4907304713       14.1453751526       -3.8499368158  MEMB      101             0.0000000000
     14387       129  DOPC      H17S           21.9562723809       13.1302591777       -3.6791365455  MEMB      101             0.0000000000
     14388       129  DOPC      C218           20.1651916401       12.5142350701       -2.4730659772  MEMB      101             0.0000000000
     14389       129  DOPC      H18R           19.0791065440       12.7478127401       -2.4865101436  MEMB      101             0.0000000000
     14390       129  DOPC      H18S           20.6238731427       12.9073185742       -1.5406394454  MEMB      101             0.0000000000
     14391       129  DOPC      H18T           20.1818927868       11.4089967899       -2.5848267809  MEMB      101             0.0000000000
     14392       129  DOPC      C33            20.6771809164       13.6788165741      -14.8503540517  MEMB      101             0.0000000000
     14393       129  DOPC      H3X            21.4851826863       14.2100957402      -14.3033656972  MEMB      101             0.0000000000
     14394       129  DOPC      H3Y            21.0505581788       13.4503365308      -15.8714847191  MEMB      101             0.0000000000
     14395       129  DOPC      C34            20.1404013713       12.3086191761      -14.3481019680  MEMB      101             0.0000000000
     14396       129  DOPC      H4X            19.5627531928       11.9385866969      -15.2220121001  MEMB      101             0.0000000000
     14397       129  DOPC      H4Y            19.3393072958       12.4406034839      -13.5897158229  MEMB      101             0.0000000000
     14398       129  DOPC      C35            21.0402990219       11.2302466500      -13.8133828036  MEMB      101             0.0000000000
     14399       129  DOPC      H5X            21.7737493556       10.8833526248      -14.5723532758  MEMB      101             0.0000000000
     14400       129  DOPC      H5Y            20.3734649885       10.3882890577      -13.5291985792  MEMB      101             0.0000000000
     14401       129  DOPC      C36            21.7267482296       11.5706904541      -12.4094356583  MEMB      101             0.0000000000
     14402       129  DOPC      H6X            20.9143836497       12.0470924902      -11.8200071277  MEMB      101             0.0000000000
     14403       129  DOPC      H6Y            22.0797017952       10.5810786135      -12.0483084848  MEMB      101             0.0000000000
     14404       129  DOPC      C37            22.9154239104       12.5491490618      -12.4425995858  MEMB      101             0.0000000000
     14405       129  DOPC      H7X            23.5596661114       12.2895651960      -13.3097149984  MEMB      101             0.0000000000
     14406       129  DOPC      H7Y            22.5542256702       13.5952860636      -12.5398321377  MEMB      101             0.0000000000
     14407       129  DOPC      C38            23.7962563464       12.2561220621      -11.2001616382  MEMB      101             0.0000000000
     14408       129  DOPC      H8X            24.1117467181       11.1961290764      -11.3059997248  MEMB      101             0.0000000000
     14409       129  DOPC      H8Y            23.3152230861       12.3896952331      -10.2076468595  MEMB      101             0.0000000000
     14410       129  DOPC      C39            24.8759680322       13.3124925388      -11.2021923198  MEMB      101             0.0000000000
     14411       129  DOPC      H9X            25.0724799299       13.6995291883      -12.2129278593  MEMB      101             0.0000000000
     14412       129  DOPC      C310           25.4886963347       13.8551933448      -10.1860432766  MEMB      101             0.0000000000
     14413       129  DOPC      H10X           26.2767674523       14.5618284223      -10.4853940238  MEMB      101             0.0000000000
     14414       129  DOPC      C311           25.4130001347       13.5725438877       -8.6389965086  MEMB      101             0.0000000000
     14415       129  DOPC      H11X           26.4573544381       13.3753686546       -8.3153184646  MEMB      101             0.0000000000
     14416       129  DOPC      H11Y           24.8700230364       12.6200829902       -8.4592312869  MEMB      101             0.0000000000
     14417       129  DOPC      C312           24.9088992553       14.7880131540       -7.8518921086  MEMB      101             0.0000000000
     14418       129  DOPC      H12X           23.8336836419       14.9710075055       -8.0634237197  MEMB      101             0.0000000000
     14419       129  DOPC      H12Y           25.5144927432       15.6134362683       -8.2834643637  MEMB      101             0.0000000000
     14420       129  DOPC      C313           25.3106180619       14.6676121351       -6.4254431383  MEMB      101             0.0000000000
     14421       129  DOPC      H13X           24.8237641159       13.8112894422       -5.9116279997  MEMB      101             0.0000000000
     14422       129  DOPC      H13Y           26.3869367676       14.4026355984       -6.5005860675  MEMB      101             0.0000000000
     14423       129  DOPC      C314           25.1034124153       16.0122406207       -5.6714436385  MEMB      101             0.0000000000
     14424       129  DOPC      H14X           25.6751548166       16.8437858882       -6.1361631881  MEMB      101             0.0000000000
     14425       129  DOPC      H14Y           24.0481496673       16.3585106487       -5.7003990281  MEMB      101             0.0000000000
     14426       129  DOPC      C315           25.7029021231       15.8727860498       -4.1385918631  MEMB      101             0.0000000000
     14427       129  DOPC      H15X           26.0550643533       16.8294309561       -3.6968525174  MEMB      101             0.0000000000
     14428       129  DOPC      H15Y           26.5395471486       15.1478640067       -4.2325825515  MEMB      101             0.0000000000
     14429       129  DOPC      C316           24.5911545453       15.2919859663       -3.2127382810  MEMB      101             0.0000000000
     14430       129  DOPC      H16X           23.9479025664       14.6293136776       -3.8303248083  MEMB      101             0.0000000000
     14431       129  DOPC      H16Y           25.1390711105       14.6081507711       -2.5297454808  MEMB      101             0.0000000000
     14432       129  DOPC      C317           23.7640713683       16.3543634451       -2.3763776119  MEMB      101             0.0000000000
     14433       129  DOPC      H17X           23.2643729445       16.9135557749       -3.1960882636  MEMB      101             0.0000000000
     14434       129  DOPC      H17Y           23.0126019447       15.8396457550       -1.7402335387  MEMB      101             0.0000000000
     14435       129  DOPC      C318           24.5946169828       17.0872174008       -1.3693982877  MEMB      101             0.0000000000
     14436       129  DOPC      H18X           24.0900565907       18.0512304752       -1.1448572809  MEMB      101             0.0000000000
     14437       129  DOPC      H18Y           24.6856886589       16.4886458871       -0.4378731164  MEMB      101             0.0000000000
     14438       129  DOPC      H18Z           25.6587912663       17.2426442795       -1.6481370048  MEMB      101             0.0000000000
     14439       130  DOPC      N             -29.8505431937        0.7059471049      -20.8032047606  MEMB      102             0.0000000000
     14440       130  DOPC      C12           -30.3787238326       -0.6272730369      -20.4047467475  MEMB      102             0.0000000000
     14441       130  DOPC      H12A          -30.6316673953       -1.1253980314      -21.3290254946  MEMB      102             0.0000000000
     14442       130  DOPC      H12B          -31.3195893382       -0.5275887557      -19.8839445320  MEMB      102             0.0000000000
     14443       130  DOPC      C13           -28.4301078519        0.5476181208      -21.2336491359  MEMB      102             0.0000000000
     14444       130  DOPC      H13A          -27.7137185002        0.3580780538      -20.4479895907  MEMB      102             0.0000000000
     14445       130  DOPC      H13B          -28.2524759008       -0.2010891279      -21.9914646001  MEMB      102             0.0000000000
     14446       130  DOPC      H13C          -28.1079021940        1.5331584243      -21.5357975368  MEMB      102             0.0000000000
     14447       130  DOPC      C14           -29.7726329734        1.6586755221      -19.5301005426  MEMB      102             0.0000000000
     14448       130  DOPC      H14A          -28.9338883784        1.3543217871      -18.9215974200  MEMB      102             0.0000000000
     14449       130  DOPC      H14B          -29.5014300929        2.6235425481      -19.9324446731  MEMB      102             0.0000000000
     14450       130  DOPC      H14C          -30.6678572906        1.6258817115      -18.9268608487  MEMB      102             0.0000000000
     14451       130  DOPC      C15           -30.8216441617        1.4041778524      -21.8453601214  MEMB      102             0.0000000000
     14452       130  DOPC      H15A          -31.7672789503        1.5746639349      -21.3522991536  MEMB      102             0.0000000000
     14453       130  DOPC      H15B          -31.1261362585        0.6475257697      -22.5532884032  MEMB      102             0.0000000000
     14454       130  DOPC      H15C          -30.4485389141        2.3534864777      -22.2003326417  MEMB      102             0.0000000000
     14455       130  DOPC      C11           -29.4796003827       -1.5504346615      -19.5530150562  MEMB      102             0.0000000000
     14456       130  DOPC      H11A          -30.1566693170       -2.4207267301      -19.4170357855  MEMB      102             0.0000000000
     14457       130  DOPC      H11B          -28.5690454496       -1.8779791307      -20.0988404471  MEMB      102             0.0000000000
     14458       130  DOPC      P             -28.3744946909       -1.7443161139      -17.1577026973  MEMB      102             0.0000000000
     14459       130  DOPC      O13           -26.9381422906       -1.6939525631      -17.4662064353  MEMB      102             0.0000000000
     14460       130  DOPC      O14           -28.8980386329       -3.0672536690      -16.7414626123  MEMB      102             0.0000000000
     14461       130  DOPC      O12           -29.2121167974       -0.9992489727      -18.2670434280  MEMB      102             0.0000000000
     14462       130  DOPC      O11           -28.6801411909       -0.6918105046      -15.9975084612  MEMB      102             0.0000000000
     14463       130  DOPC      C1            -28.3668041251        0.6781262441      -16.0850673862  MEMB      102             0.0000000000
     14464       130  DOPC      HA            -29.0706754512        1.1907247874      -16.7750884687  MEMB      102             0.0000000000
     14465       130  DOPC      HB            -27.3756653327        0.8705679489      -16.5486742420  MEMB      102             0.0000000000
     14466       130  DOPC      C2            -28.6283137888        1.4591098880      -14.7839390809  MEMB      102             0.0000000000
     14467       130  DOPC      HS            -28.3659739657        2.5031405041      -15.0587102418  MEMB      102             0.0000000000
     14468       130  DOPC      O21           -27.9018505302        0.9819757181      -13.6627910223  MEMB      102             0.0000000000
     14469       130  DOPC      C21           -26.5690963737        1.2959866986      -13.6568542567  MEMB      102             0.0000000000
     14470       130  DOPC      O22           -25.9902377761        1.9257821405      -14.5060787322  MEMB      102             0.0000000000
     14471       130  DOPC      C22           -25.8904419381        0.8166962173      -12.3832611419  MEMB      102             0.0000000000
     14472       130  DOPC      H2R           -24.8672813727        1.2151003520      -12.2137388765  MEMB      102             0.0000000000
     14473       130  DOPC      H2S           -25.7597358417       -0.2847023160      -12.3187790142  MEMB      102             0.0000000000
     14474       130  DOPC      C3            -30.2034549422        1.4839802266      -14.3988559227  MEMB      102             0.0000000000
     14475       130  DOPC      HX            -30.7343366552        1.9247712517      -15.2695966241  MEMB      102             0.0000000000
     14476       130  DOPC      HY            -30.3820538453        2.1830735656      -13.5540531065  MEMB      102             0.0000000000
     14477       130  DOPC      O31           -30.6323162603        0.1055590152      -14.0853012005  MEMB      102             0.0000000000
     14478       130  DOPC      C31           -31.6502833745       -0.4326451791      -14.6914727544  MEMB      102             0.0000000000
     14479       130  DOPC      O32           -32.3864066961        0.0764297828      -15.4966437162  MEMB      102             0.0000000000
     14480       130  DOPC      C32           -31.7500466445       -1.9081320455      -14.3483819421  MEMB      102             0.0000000000
     14481       130  DOPC      H2X           -31.5175140425       -2.5023577162      -15.2578573174  MEMB      102             0.0000000000
     14482       130  DOPC      H2Y           -31.1026133059       -2.2473304748      -13.5116648361  MEMB      102             0.0000000000
     14483       130  DOPC      C23           -26.5605789903        1.2028520217      -11.0817370905  MEMB      102             0.0000000000
     14484       130  DOPC      H3R           -25.9625527266        0.7632383304      -10.2550419916  MEMB      102             0.0000000000
     14485       130  DOPC      H3S           -27.5124753706        0.6399967362      -10.9749282607  MEMB      102             0.0000000000
     14486       130  DOPC      C24           -26.8047682856        2.7474832309      -10.8465955185  MEMB      102             0.0000000000
     14487       130  DOPC      H4R           -27.2986339933        3.1782651144      -11.7437267975  MEMB      102             0.0000000000
     14488       130  DOPC      H4S           -25.7522063346        3.1030100369      -10.8406628448  MEMB      102             0.0000000000
     14489       130  DOPC      C25           -27.5493891528        3.1402421763       -9.5546664471  MEMB      102             0.0000000000
     14490       130  DOPC      H5R           -28.6439714787        3.0658474642       -9.7298120706  MEMB      102             0.0000000000
     14491       130  DOPC      H5S           -27.2970478055        4.2155967583       -9.4352647820  MEMB      102             0.0000000000
     14492       130  DOPC      C26           -27.1158959422        2.5340827717       -8.1325057541  MEMB      102             0.0000000000
     14493       130  DOPC      H6R           -26.0185283173        2.6321643074       -7.9893780197  MEMB      102             0.0000000000
     14494       130  DOPC      H6S           -27.1537122680        1.4240672985       -8.1050071047  MEMB      102             0.0000000000
     14495       130  DOPC      C27           -27.8841858381        3.3426657586       -7.0929207960  MEMB      102             0.0000000000
     14496       130  DOPC      H7R           -28.9600830841        3.5515305697       -7.2749692514  MEMB      102             0.0000000000
     14497       130  DOPC      H7S           -27.5282020425        4.3946027404       -7.0609135169  MEMB      102             0.0000000000
     14498       130  DOPC      C28           -27.6716696898        2.7155406754       -5.7465342104  MEMB      102             0.0000000000
     14499       130  DOPC      H8R           -28.1287646272        3.4655980819       -5.0662408644  MEMB      102             0.0000000000
     14500       130  DOPC      H8S           -26.6493900759        2.8648263123       -5.3379033139  MEMB      102             0.0000000000
     14501       130  DOPC      C29           -28.2756477749        1.3590063668       -5.5304860939  MEMB      102             0.0000000000
     14502       130  DOPC      H9R           -29.3221953615        1.0771439578       -5.7183473916  MEMB      102             0.0000000000
     14503       130  DOPC      C210          -27.5920180948        0.2236899704       -5.1698239079  MEMB      102             0.0000000000
     14504       130  DOPC      H10R          -28.2116716207       -0.5822310742       -4.7496800500  MEMB      102             0.0000000000
     14505       130  DOPC      C211          -26.1372481109        0.0048070557       -4.9204178529  MEMB      102             0.0000000000
     14506       130  DOPC      H11R          -25.5289854058        0.6735844746       -5.5662307358  MEMB      102             0.0000000000
     14507       130  DOPC      H11S          -25.7602334160       -0.9644891288       -5.3111172460  MEMB      102             0.0000000000
     14508       130  DOPC      C212          -25.5393152163        0.2290302246       -3.5311180474  MEMB      102             0.0000000000
     14509       130  DOPC      H12R          -25.7894152998        1.2566840212       -3.1909730664  MEMB      102             0.0000000000
     14510       130  DOPC      H12S          -24.4445307064        0.0433872656       -3.5672321302  MEMB      102             0.0000000000
     14511       130  DOPC      C213          -26.1418623123       -0.6975014904       -2.4799712865  MEMB      102             0.0000000000
     14512       130  DOPC      H13R          -25.3518431720       -0.7554988172       -1.7009799931  MEMB      102             0.0000000000
     14513       130  DOPC      H13S          -26.1504260405       -1.7356698532       -2.8755147639  MEMB      102             0.0000000000
     14514       130  DOPC      C214          -27.5058564024       -0.2543760499       -1.8520655203  MEMB      102             0.0000000000
     14515       130  DOPC      H14R          -28.3542869329       -0.2663765736       -2.5692423919  MEMB      102             0.0000000000
     14516       130  DOPC      H14S          -27.4434553455        0.7546270278       -1.3912636465  MEMB      102             0.0000000000
     14517       130  DOPC      C215          -27.8538143828       -1.2113248333       -0.7169391739  MEMB      102             0.0000000000
     14518       130  DOPC      H15R          -27.0463034383       -1.3843203169        0.0262428180  MEMB      102             0.0000000000
     14519       130  DOPC      H15S          -28.0091291665       -2.2074138515       -1.1838509146  MEMB      102             0.0000000000
     14520       130  DOPC      C216          -29.0772010455       -0.8053173506        0.1047889232  MEMB      102             0.0000000000
     14521       130  DOPC      H16R          -29.1660068620        0.2962153267        0.2190693340  MEMB      102             0.0000000000
     14522       130  DOPC      H16S          -28.9867696549       -1.3044780512        1.0932121686  MEMB      102             0.0000000000
     14523       130  DOPC      C217          -30.5065511716       -1.2938890475       -0.4247296505  MEMB      102             0.0000000000
     14524       130  DOPC      H17R          -30.6255481147       -0.7702062056       -1.3973123417  MEMB      102             0.0000000000
     14525       130  DOPC      H17S          -31.3551145051       -0.9177538198        0.1858315569  MEMB      102             0.0000000000
     14526       130  DOPC      C218          -30.6182765823       -2.7926526194       -0.7998037296  MEMB      102             0.0000000000
     14527       130  DOPC      H18R          -31.7123611184       -2.9853526902       -0.7869028440  MEMB      102             0.0000000000
     14528       130  DOPC      H18S          -30.0227494584       -3.4565600733       -0.1373112126  MEMB      102             0.0000000000
     14529       130  DOPC      H18T          -30.2172037191       -2.9603480569       -1.8222216523  MEMB      102             0.0000000000
     14530       130  DOPC      C33           -33.2043355803       -2.3653610907      -14.0482244678  MEMB      102             0.0000000000
     14531       130  DOPC      H3X           -33.2350249898       -3.4600722986      -14.2352717201  MEMB      102             0.0000000000
     14532       130  DOPC      H3Y           -33.9827106028       -1.8058781855      -14.6098580627  MEMB      102             0.0000000000
     14533       130  DOPC      C34           -33.5911070177       -2.1785241666      -12.5728476233  MEMB      102             0.0000000000
     14534       130  DOPC      H4X           -34.6497959318       -2.4956141763      -12.4590364147  MEMB      102             0.0000000000
     14535       130  DOPC      H4Y           -33.6307706719       -1.0696556245      -12.5166496382  MEMB      102             0.0000000000
     14536       130  DOPC      C35           -32.7616720293       -2.8231661638      -11.4800368393  MEMB      102             0.0000000000
     14537       130  DOPC      H5X           -31.7450378807       -2.3825457257      -11.5614590766  MEMB      102             0.0000000000
     14538       130  DOPC      H5Y           -32.7625711983       -3.8903621241      -11.7889270172  MEMB      102             0.0000000000
     14539       130  DOPC      C36           -33.3212088900       -2.6232319852      -10.0873095839  MEMB      102             0.0000000000
     14540       130  DOPC      H6X           -34.2208558221       -3.2637847762       -9.9662777037  MEMB      102             0.0000000000
     14541       130  DOPC      H6Y           -32.6196757309       -3.0763697806       -9.3546175116  MEMB      102             0.0000000000
     14542       130  DOPC      C37           -33.5651770637       -1.1961693525       -9.5387218466  MEMB      102             0.0000000000
     14543       130  DOPC      H7X           -32.6669083422       -0.5619969300       -9.6976536473  MEMB      102             0.0000000000
     14544       130  DOPC      H7Y           -34.2449195356       -0.5963122944      -10.1809386528  MEMB      102             0.0000000000
     14545       130  DOPC      C38           -34.0691639195       -1.2202138989       -8.0508665968  MEMB      102             0.0000000000
     14546       130  DOPC      H8X           -33.2219574354       -1.2772634271       -7.3344108057  MEMB      102             0.0000000000
     14547       130  DOPC      H8Y           -34.6213936712       -2.1740442591       -7.9109711786  MEMB      102             0.0000000000
     14548       130  DOPC      C39           -34.9356967028       -0.0139816575       -7.7359832766  MEMB      102             0.0000000000
     14549       130  DOPC      H9X           -35.9848100549       -0.0420162286       -8.0654903547  MEMB      102             0.0000000000
     14550       130  DOPC      C310          -34.5273204274        1.0007087800       -6.9465803112  MEMB      102             0.0000000000
     14551       130  DOPC      H10X          -35.1957924745        1.8423313404       -6.7124491262  MEMB      102             0.0000000000
     14552       130  DOPC      C311          -33.1294477561        1.1096925733       -6.3020807609  MEMB      102             0.0000000000
     14553       130  DOPC      H11X          -32.8212197114        2.1762645880       -6.3438030920  MEMB      102             0.0000000000
     14554       130  DOPC      H11Y          -32.4610315424        0.6616455810       -7.0681058471  MEMB      102             0.0000000000
     14555       130  DOPC      C312          -32.9986576217        0.4435862944       -4.9408251844  MEMB      102             0.0000000000
     14556       130  DOPC      H12X          -32.9956023291       -0.6463966998       -5.1558796380  MEMB      102             0.0000000000
     14557       130  DOPC      H12Y          -33.8043742304        0.8313119690       -4.2814227697  MEMB      102             0.0000000000
     14558       130  DOPC      C313          -31.7268960289        0.6822567344       -4.1955199501  MEMB      102             0.0000000000
     14559       130  DOPC      H13X          -31.7719709348       -0.0722233604       -3.3812418094  MEMB      102             0.0000000000
     14560       130  DOPC      H13Y          -30.7970777232        0.4765222285       -4.7677369160  MEMB      102             0.0000000000
     14561       130  DOPC      C314          -31.5977196092        2.1601729561       -3.8582747679  MEMB      102             0.0000000000
     14562       130  DOPC      H14X          -31.4101086456        2.8538417079       -4.7055923165  MEMB      102             0.0000000000
     14563       130  DOPC      H14Y          -32.4943981910        2.4013575151       -3.2482593902  MEMB      102             0.0000000000
     14564       130  DOPC      C315          -30.4660898773        2.5638594865       -2.9828441659  MEMB      102             0.0000000000
     14565       130  DOPC      H15X          -29.6546461878        1.9157450641       -3.3775941545  MEMB      102             0.0000000000
     14566       130  DOPC      H15Y          -30.6931825394        2.2178774800       -1.9518022155  MEMB      102             0.0000000000
     14567       130  DOPC      C316          -30.0821288708        4.0962899232       -2.8835130392  MEMB      102             0.0000000000
     14568       130  DOPC      H16X          -29.7171288513        4.4321830796       -3.8776322308  MEMB      102             0.0000000000
     14569       130  DOPC      H16Y          -31.0551044717        4.5768859757       -2.6454666110  MEMB      102             0.0000000000
     14570       130  DOPC      C317          -29.0013585146        4.2998174215       -1.8521820386  MEMB      102             0.0000000000
     14571       130  DOPC      H17X          -28.1349870518        3.7629576398       -2.2943392292  MEMB      102             0.0000000000
     14572       130  DOPC      H17Y          -28.8029976403        5.3910197810       -1.7869818527  MEMB      102             0.0000000000
     14573       130  DOPC      C318          -29.2949074962        3.9215337263       -0.3633197574  MEMB      102             0.0000000000
     14574       130  DOPC      H18X          -28.3764356595        4.1997397625        0.1964406983  MEMB      102             0.0000000000
     14575       130  DOPC      H18Y          -30.0737014907        4.4925133410        0.1860272665  MEMB      102             0.0000000000
     14576       130  DOPC      H18Z          -29.4598155651        2.8302824340       -0.2356606999  MEMB      102             0.0000000000
     14577       131  DOPC      N              -2.2928790794      -30.0582752194      -19.0170263977  MEMB      103             0.0000000000
     14578       131  DOPC      C12            -2.9089838924      -29.5674605356      -20.2835422796  MEMB      103             0.0000000000
     14579       131  DOPC      H12A           -3.5181807510      -30.4299222795      -20.5103437193  MEMB      103             0.0000000000
     14580       131  DOPC      H12B           -2.0709225349      -29.4498057496      -20.9545195111  MEMB      103             0.0000000000
     14581       131  DOPC      C13            -3.3673904311      -30.1698572243      -17.9630581109  MEMB      103             0.0000000000
     14582       131  DOPC      H13A           -4.1310481485      -30.8682907659      -18.2719552841  MEMB      103             0.0000000000
     14583       131  DOPC      H13B           -2.8167783057      -30.5671110484      -17.1231678120  MEMB      103             0.0000000000
     14584       131  DOPC      H13C           -3.8015108894      -29.2077794839      -17.7342661064  MEMB      103             0.0000000000
     14585       131  DOPC      C14            -1.1616412595      -29.2120812537      -18.5194309149  MEMB      103             0.0000000000
     14586       131  DOPC      H14A           -0.3874042333      -29.0655938303      -19.2580094416  MEMB      103             0.0000000000
     14587       131  DOPC      H14B           -1.5558666678      -28.2839475878      -18.1327085035  MEMB      103             0.0000000000
     14588       131  DOPC      H14C           -0.6910084188      -29.6869861114      -17.6712740543  MEMB      103             0.0000000000
     14589       131  DOPC      C15            -1.7506822346      -31.4347976435      -19.2932134779  MEMB      103             0.0000000000
     14590       131  DOPC      H15A           -1.3192824275      -31.8029745728      -18.3741160180  MEMB      103             0.0000000000
     14591       131  DOPC      H15B           -1.0015460011      -31.4082190405      -20.0707019587  MEMB      103             0.0000000000
     14592       131  DOPC      H15C           -2.5267774324      -32.1692577877      -19.4501994983  MEMB      103             0.0000000000
     14593       131  DOPC      C11            -3.6979079827      -28.2939717450      -20.3117299162  MEMB      103             0.0000000000
     14594       131  DOPC      H11A           -3.7766047537      -27.7860723451      -21.2967000503  MEMB      103             0.0000000000
     14595       131  DOPC      H11B           -4.7295797822      -28.5707094501      -20.0061313383  MEMB      103             0.0000000000
     14596       131  DOPC      P              -4.0759628926      -26.2055231055      -18.7384080310  MEMB      103             0.0000000000
     14597       131  DOPC      O13            -5.1797374073      -26.7026524736      -17.8952878010  MEMB      103             0.0000000000
     14598       131  DOPC      O14            -4.4131520514      -25.3329749973      -19.8579505877  MEMB      103             0.0000000000
     14599       131  DOPC      O12            -3.1907305366      -27.4170612091      -19.3605940443  MEMB      103             0.0000000000
     14600       131  DOPC      O11            -2.9897545254      -25.5581217830      -17.7597584398  MEMB      103             0.0000000000
     14601       131  DOPC      C1             -1.7116401360      -25.2502063948      -18.3568575383  MEMB      103             0.0000000000
     14602       131  DOPC      HA             -2.0152321309      -24.7681880813      -19.3106977807  MEMB      103             0.0000000000
     14603       131  DOPC      HB             -1.0379671416      -26.1309950101      -18.4253929099  MEMB      103             0.0000000000
     14604       131  DOPC      C2             -1.1269729470      -24.1234151998      -17.4940729025  MEMB      103             0.0000000000
     14605       131  DOPC      HS             -0.0636346169      -23.9116127501      -17.7365020961  MEMB      103             0.0000000000
     14606       131  DOPC      O21            -1.1114962178      -24.4704658347      -16.0700038281  MEMB      103             0.0000000000
     14607       131  DOPC      C21            -0.2699655783      -25.3974057242      -15.7307902586  MEMB      103             0.0000000000
     14608       131  DOPC      O22             0.4259443231      -26.0583942428      -16.4396325876  MEMB      103             0.0000000000
     14609       131  DOPC      C22            -0.5058563034      -25.6746805311      -14.2606909257  MEMB      103             0.0000000000
     14610       131  DOPC      H2R            -1.3060196833      -26.4417343722      -14.1852723711  MEMB      103             0.0000000000
     14611       131  DOPC      H2S            -0.8705187490      -24.7641716324      -13.7388515916  MEMB      103             0.0000000000
     14612       131  DOPC      C3             -1.8666123992      -22.8118996980      -17.6454142523  MEMB      103             0.0000000000
     14613       131  DOPC      HX             -1.6635240253      -22.4099240412      -18.6610379537  MEMB      103             0.0000000000
     14614       131  DOPC      HY             -1.4281685228      -22.1204819741      -16.8943952383  MEMB      103             0.0000000000
     14615       131  DOPC      O31            -3.2603132970      -22.9429801884      -17.3320459106  MEMB      103             0.0000000000
     14616       131  DOPC      C31            -3.5873688878      -22.7875667126      -16.1005842074  MEMB      103             0.0000000000
     14617       131  DOPC      O32            -2.8803195077      -22.4921074391      -15.1522870177  MEMB      103             0.0000000000
     14618       131  DOPC      C32            -5.1206714685      -22.8862359122      -16.0091019825  MEMB      103             0.0000000000
     14619       131  DOPC      H2X            -5.4769957084      -21.8350165182      -15.9612304817  MEMB      103             0.0000000000
     14620       131  DOPC      H2Y            -5.6180010995      -23.4290116378      -16.8411949805  MEMB      103             0.0000000000
     14621       131  DOPC      C23             0.7539764017      -26.2220134661      -13.5724407159  MEMB      103             0.0000000000
     14622       131  DOPC      H3R             1.6803376353      -25.6124411083      -13.6402449422  MEMB      103             0.0000000000
     14623       131  DOPC      H3S             1.0245806915      -27.2012372436      -14.0221242974  MEMB      103             0.0000000000
     14624       131  DOPC      C24             0.4686015185      -26.2942910355      -11.9921617368  MEMB      103             0.0000000000
     14625       131  DOPC      H4R             1.4206362015      -26.7569661291      -11.6546966813  MEMB      103             0.0000000000
     14626       131  DOPC      H4S            -0.3487309389      -27.0289329156      -11.8290973218  MEMB      103             0.0000000000
     14627       131  DOPC      C25             0.2192636267      -24.9844052009      -11.2750662786  MEMB      103             0.0000000000
     14628       131  DOPC      H5R            -0.7086672172      -24.4441968357      -11.5604438305  MEMB      103             0.0000000000
     14629       131  DOPC      H5S             1.1115075468      -24.3224325581      -11.2713981307  MEMB      103             0.0000000000
     14630       131  DOPC      C26            -0.1205281145      -25.2082191335       -9.7963900450  MEMB      103             0.0000000000
     14631       131  DOPC      H6R             0.7705248193      -25.7440101315       -9.4048882397  MEMB      103             0.0000000000
     14632       131  DOPC      H6S            -0.9819121629      -25.9052340691       -9.7157131632  MEMB      103             0.0000000000
     14633       131  DOPC      C27            -0.5467663652      -23.9095829237       -9.0732701634  MEMB      103             0.0000000000
     14634       131  DOPC      H7R            -1.3905597185      -23.4048548213       -9.5905547108  MEMB      103             0.0000000000
     14635       131  DOPC      H7S             0.3454004725      -23.2521523930       -9.1516576598  MEMB      103             0.0000000000
     14636       131  DOPC      C28            -1.1184023473      -24.1342983152       -7.6414084221  MEMB      103             0.0000000000
     14637       131  DOPC      H8R            -1.9722573144      -24.8289340932       -7.7921850700  MEMB      103             0.0000000000
     14638       131  DOPC      H8S            -1.4201673227      -23.1603351198       -7.2002112959  MEMB      103             0.0000000000
     14639       131  DOPC      C29            -0.1937572561      -24.8610029850       -6.6823305378  MEMB      103             0.0000000000
     14640       131  DOPC      H9R             0.0048540348      -25.9061968810       -6.9618358939  MEMB      103             0.0000000000
     14641       131  DOPC      C210            0.2841955241      -24.3960912388       -5.5260308514  MEMB      103             0.0000000000
     14642       131  DOPC      H10R            0.7787749134      -25.0907379630       -4.8311516279  MEMB      103             0.0000000000
     14643       131  DOPC      C211           -0.0618034654      -23.0591428503       -4.8877283871  MEMB      103             0.0000000000
     14644       131  DOPC      H11R           -0.1166193045      -22.2087403242       -5.6005621487  MEMB      103             0.0000000000
     14645       131  DOPC      H11S            0.7990354574      -22.8164858623       -4.2286415363  MEMB      103             0.0000000000
     14646       131  DOPC      C212           -1.3845964354      -22.9883019858       -4.1734570967  MEMB      103             0.0000000000
     14647       131  DOPC      H12R           -2.2201031319      -22.9618838131       -4.9052715352  MEMB      103             0.0000000000
     14648       131  DOPC      H12S           -1.3430282509      -21.9737022943       -3.7227034381  MEMB      103             0.0000000000
     14649       131  DOPC      C213           -1.6188139668      -24.0673508478       -3.0922472690  MEMB      103             0.0000000000
     14650       131  DOPC      H13R           -0.7123975433      -24.0999421526       -2.4506342466  MEMB      103             0.0000000000
     14651       131  DOPC      H13S           -1.6876387279      -25.0919860342       -3.5161647550  MEMB      103             0.0000000000
     14652       131  DOPC      C214           -2.9411009463      -23.8810296255       -2.3410354200  MEMB      103             0.0000000000
     14653       131  DOPC      H14R           -2.8850471694      -22.9166439033       -1.7922718993  MEMB      103             0.0000000000
     14654       131  DOPC      H14S           -3.0925230563      -24.5614421661       -1.4759158710  MEMB      103             0.0000000000
     14655       131  DOPC      C215           -4.3149170869      -23.8281630239       -3.1494490639  MEMB      103             0.0000000000
     14656       131  DOPC      H15R           -4.3945593686      -24.6441412733       -3.8992198607  MEMB      103             0.0000000000
     14657       131  DOPC      H15S           -4.2946899640      -22.9624741611       -3.8455053590  MEMB      103             0.0000000000
     14658       131  DOPC      C216           -5.5726350659      -23.7514450908       -2.2690524088  MEMB      103             0.0000000000
     14659       131  DOPC      H16R           -6.3873007288      -23.3645844531       -2.9178820111  MEMB      103             0.0000000000
     14660       131  DOPC      H16S           -5.3452262594      -23.0244230332       -1.4603210655  MEMB      103             0.0000000000
     14661       131  DOPC      C217           -6.0181711002      -25.0765767700       -1.6008023328  MEMB      103             0.0000000000
     14662       131  DOPC      H17R           -5.2454427867      -25.6439341733       -1.0392712346  MEMB      103             0.0000000000
     14663       131  DOPC      H17S           -6.2471605665      -25.6564220870       -2.5204028671  MEMB      103             0.0000000000
     14664       131  DOPC      C218           -7.2754927556      -25.0673695543       -0.8071598469  MEMB      103             0.0000000000
     14665       131  DOPC      H18R           -8.2215264779      -24.7438728372       -1.2916092740  MEMB      103             0.0000000000
     14666       131  DOPC      H18S           -7.2233797088      -24.3386539198        0.0298445586  MEMB      103             0.0000000000
     14667       131  DOPC      H18T           -7.4675803198      -26.0720686757       -0.3735671871  MEMB      103             0.0000000000
     14668       131  DOPC      C33            -5.5007973594      -23.6723966060      -14.6931833456  MEMB      103             0.0000000000
     14669       131  DOPC      H3X            -4.9307709234      -23.1705238486      -13.8823103054  MEMB      103             0.0000000000
     14670       131  DOPC      H3Y            -5.0909835356      -24.6773366301      -14.9308161724  MEMB      103             0.0000000000
     14671       131  DOPC      C34            -7.0501896024      -23.7340730590      -14.5503739958  MEMB      103             0.0000000000
     14672       131  DOPC      H4X            -7.5533529738      -24.2511491285      -15.3952288441  MEMB      103             0.0000000000
     14673       131  DOPC      H4Y            -7.5913609125      -22.7889139156      -14.3309900408  MEMB      103             0.0000000000
     14674       131  DOPC      C35            -7.5037711330      -24.5808858307      -13.3449782333  MEMB      103             0.0000000000
     14675       131  DOPC      H5X            -7.0305023027      -25.5851613373      -13.3870295497  MEMB      103             0.0000000000
     14676       131  DOPC      H5Y            -8.6110873053      -24.6467659152      -13.2830784731  MEMB      103             0.0000000000
     14677       131  DOPC      C36            -7.1449974432      -23.8953901905      -12.0418440569  MEMB      103             0.0000000000
     14678       131  DOPC      H6X            -6.0345668269      -23.8705344716      -12.0164020053  MEMB      103             0.0000000000
     14679       131  DOPC      H6Y            -7.5884634744      -22.8772397176      -12.0097829981  MEMB      103             0.0000000000
     14680       131  DOPC      C37            -7.6633753049      -24.7685071256      -10.8345855249  MEMB      103             0.0000000000
     14681       131  DOPC      H7X            -8.7697278716      -24.8339038793      -10.9122323235  MEMB      103             0.0000000000
     14682       131  DOPC      H7Y            -7.0901039473      -25.7112371028      -10.9647442319  MEMB      103             0.0000000000
     14683       131  DOPC      C38            -7.2977606816      -24.3225468358       -9.3976888177  MEMB      103             0.0000000000
     14684       131  DOPC      H8X            -7.9900338533      -23.4813099189       -9.1799750214  MEMB      103             0.0000000000
     14685       131  DOPC      H8Y            -6.2893226090      -23.8610367128       -9.3314936729  MEMB      103             0.0000000000
     14686       131  DOPC      C39            -7.3958409703      -25.3454694637       -8.2271117339  MEMB      103             0.0000000000
     14687       131  DOPC      H9X            -8.3730029019      -25.8325133257       -8.0931611194  MEMB      103             0.0000000000
     14688       131  DOPC      C310           -6.3929789367      -25.9010491634       -7.4450816237  MEMB      103             0.0000000000
     14689       131  DOPC      H10X           -6.6071681429      -26.7307469556       -6.7553542497  MEMB      103             0.0000000000
     14690       131  DOPC      C311           -4.9283821142      -25.6805281868       -7.4886472719  MEMB      103             0.0000000000
     14691       131  DOPC      H11X           -4.5508767371      -25.6808240298       -6.4437500785  MEMB      103             0.0000000000
     14692       131  DOPC      H11Y           -4.8387016070      -24.7096884183       -8.0213276738  MEMB      103             0.0000000000
     14693       131  DOPC      C312           -4.1333286799      -26.7570824576       -8.2438681767  MEMB      103             0.0000000000
     14694       131  DOPC      H12X           -3.0439039021      -26.7145361166       -8.0301753228  MEMB      103             0.0000000000
     14695       131  DOPC      H12Y           -4.3561704128      -26.5894372872       -9.3193021977  MEMB      103             0.0000000000
     14696       131  DOPC      C313           -4.5529557320      -28.1721260367       -7.9617671857  MEMB      103             0.0000000000
     14697       131  DOPC      H13X           -5.5982996565      -28.2735791715       -8.3240987327  MEMB      103             0.0000000000
     14698       131  DOPC      H13Y           -3.9353421453      -28.8091879289       -8.6303675998  MEMB      103             0.0000000000
     14699       131  DOPC      C314           -4.4351940099      -28.5444275037       -6.4551835734  MEMB      103             0.0000000000
     14700       131  DOPC      H14X           -5.0577963407      -27.9741607394       -5.7330455496  MEMB      103             0.0000000000
     14701       131  DOPC      H14Y           -4.6390715739      -29.6284651336       -6.3224530445  MEMB      103             0.0000000000
     14702       131  DOPC      C315           -2.9565616651      -28.2195957613       -5.8765565671  MEMB      103             0.0000000000
     14703       131  DOPC      H15X           -2.9283894645      -27.1107661780       -5.9399944427  MEMB      103             0.0000000000
     14704       131  DOPC      H15Y           -2.2761070798      -28.6877458877       -6.6196166651  MEMB      103             0.0000000000
     14705       131  DOPC      C316           -2.7321729207      -28.6897115585       -4.4394078473  MEMB      103             0.0000000000
     14706       131  DOPC      H16X           -3.0591666831      -29.7358353515       -4.2576905672  MEMB      103             0.0000000000
     14707       131  DOPC      H16Y           -1.6716291152      -28.8568794588       -4.1537110630  MEMB      103             0.0000000000
     14708       131  DOPC      C317           -3.3540308601      -27.7986557827       -3.4069044877  MEMB      103             0.0000000000
     14709       131  DOPC      H17X           -2.7907817359      -26.8410877421       -3.3952817921  MEMB      103             0.0000000000
     14710       131  DOPC      H17Y           -4.3716579859      -27.4867407137       -3.7254397165  MEMB      103             0.0000000000
     14711       131  DOPC      C318           -3.4215680125      -28.4430904155       -1.9528949127  MEMB      103             0.0000000000
     14712       131  DOPC      H18X           -4.0942097114      -29.3265130304       -1.9908216332  MEMB      103             0.0000000000
     14713       131  DOPC      H18Y           -2.3803721061      -28.7340353298       -1.6968035853  MEMB      103             0.0000000000
     14714       131  DOPC      H18Z           -3.8450515277      -27.7518907421       -1.1931422576  MEMB      103             0.0000000000
     14715       132  DOPC      N             -25.2251123857       16.0618614816      -20.2718447618  MEMB      104             0.0000000000
     14716       132  DOPC      C12           -25.4305776106       14.7861601155      -19.4298836565  MEMB      104             0.0000000000
     14717       132  DOPC      H12A          -25.4737628659       13.8863841581      -20.0256506058  MEMB      104             0.0000000000
     14718       132  DOPC      H12B          -26.3322282902       14.8775187927      -18.8424491104  MEMB      104             0.0000000000
     14719       132  DOPC      C13           -25.5613961738       17.2709143284      -19.3282762098  MEMB      104             0.0000000000
     14720       132  DOPC      H13A          -26.5195762332       17.1251577145      -18.8517825347  MEMB      104             0.0000000000
     14721       132  DOPC      H13B          -24.7834918596       17.3460999475      -18.5828824234  MEMB      104             0.0000000000
     14722       132  DOPC      H13C          -25.7280116612       18.1370717426      -19.9515022506  MEMB      104             0.0000000000
     14723       132  DOPC      C14           -26.1771471102       16.0764115433      -21.4047194296  MEMB      104             0.0000000000
     14724       132  DOPC      H14A          -27.2112879302       16.0423750399      -21.0952126392  MEMB      104             0.0000000000
     14725       132  DOPC      H14B          -26.0708780841       17.0376616820      -21.8854532425  MEMB      104             0.0000000000
     14726       132  DOPC      H14C          -25.8958784316       15.3991958796      -22.1976045461  MEMB      104             0.0000000000
     14727       132  DOPC      C15           -23.9136220686       16.1055848164      -20.7977147269  MEMB      104             0.0000000000
     14728       132  DOPC      H15A          -23.0976397777       16.0017932628      -20.0978575156  MEMB      104             0.0000000000
     14729       132  DOPC      H15B          -23.7067023173       17.0446614844      -21.2893645407  MEMB      104             0.0000000000
     14730       132  DOPC      H15C          -23.8576560879       15.2922562983      -21.5060682296  MEMB      104             0.0000000000
     14731       132  DOPC      C11           -24.3333789770       14.4463853921      -18.2981443325  MEMB      104             0.0000000000
     14732       132  DOPC      H11A          -24.4210771019       15.1533427509      -17.4455944005  MEMB      104             0.0000000000
     14733       132  DOPC      H11B          -24.7065865003       13.4709716212      -17.9191917469  MEMB      104             0.0000000000
     14734       132  DOPC      P             -21.8704313443       13.9197351405      -17.9085891289  MEMB      104             0.0000000000
     14735       132  DOPC      O13           -20.5020729199       14.2755909326      -18.3795815034  MEMB      104             0.0000000000
     14736       132  DOPC      O14           -22.1305977639       12.5028235716      -17.6310945960  MEMB      104             0.0000000000
     14737       132  DOPC      O12           -23.0619836641       14.4626525683      -18.8672761387  MEMB      104             0.0000000000
     14738       132  DOPC      O11           -22.0743060822       14.8375249057      -16.6828755187  MEMB      104             0.0000000000
     14739       132  DOPC      C1            -21.5972592040       16.1104248954      -16.7215013265  MEMB      104             0.0000000000
     14740       132  DOPC      HA            -21.6460044547       16.6176745536      -17.7087412291  MEMB      104             0.0000000000
     14741       132  DOPC      HB            -20.5054333306       16.0625261988      -16.5216441970  MEMB      104             0.0000000000
     14742       132  DOPC      C2            -22.1488210405       17.0534638592      -15.6472779608  MEMB      104             0.0000000000
     14743       132  DOPC      HS            -21.4410318044       17.8863302513      -15.4480575481  MEMB      104             0.0000000000
     14744       132  DOPC      O21           -22.2935330016       16.2269018865      -14.5213320259  MEMB      104             0.0000000000
     14745       132  DOPC      C21           -21.1244903386       15.9597793351      -13.7699814756  MEMB      104             0.0000000000
     14746       132  DOPC      O22           -19.9668400948       16.1574182791      -14.1560912397  MEMB      104             0.0000000000
     14747       132  DOPC      C22           -21.5941775271       15.2560775886      -12.5161296531  MEMB      104             0.0000000000
     14748       132  DOPC      H2R           -20.7630518547       14.5286442386      -12.3961647860  MEMB      104             0.0000000000
     14749       132  DOPC      H2S           -22.5640833693       14.7255395677      -12.6262808498  MEMB      104             0.0000000000
     14750       132  DOPC      C3            -23.5542589893       17.5838629532      -15.9890718430  MEMB      104             0.0000000000
     14751       132  DOPC      HX            -24.2490761339       16.7883586413      -16.3336342095  MEMB      104             0.0000000000
     14752       132  DOPC      HY            -23.5435745264       18.3417852719      -16.8013283965  MEMB      104             0.0000000000
     14753       132  DOPC      O31           -24.1515775693       18.1720426379      -14.8085701325  MEMB      104             0.0000000000
     14754       132  DOPC      C31           -25.3285298207       17.7811492513      -14.3552937651  MEMB      104             0.0000000000
     14755       132  DOPC      O32           -26.1856411840       17.0903356840      -14.8991312995  MEMB      104             0.0000000000
     14756       132  DOPC      C32           -25.5754891663       18.3642042482      -12.9745535638  MEMB      104             0.0000000000
     14757       132  DOPC      H2X           -25.2149907658       17.5806916723      -12.2742179010  MEMB      104             0.0000000000
     14758       132  DOPC      H2Y           -25.0691371108       19.3388535755      -12.8072601214  MEMB      104             0.0000000000
     14759       132  DOPC      C23           -21.6195437128       16.1701795540      -11.2940511646  MEMB      104             0.0000000000
     14760       132  DOPC      H3R           -22.3653566816       15.6212099259      -10.6802789012  MEMB      104             0.0000000000
     14761       132  DOPC      H3S           -22.0412623259       17.1628354094      -11.5607133344  MEMB      104             0.0000000000
     14762       132  DOPC      C24           -20.2242380066       16.1874270417      -10.6582035023  MEMB      104             0.0000000000
     14763       132  DOPC      H4R           -19.5515954746       16.6879467005      -11.3871431636  MEMB      104             0.0000000000
     14764       132  DOPC      H4S           -19.8712999615       15.1361193541      -10.5910630129  MEMB      104             0.0000000000
     14765       132  DOPC      C25           -20.1530208161       16.9757307362       -9.3323133780  MEMB      104             0.0000000000
     14766       132  DOPC      H5R           -20.4310335720       18.0019709299       -9.6545877301  MEMB      104             0.0000000000
     14767       132  DOPC      H5S           -19.0789678276       16.8631871927       -9.0714191144  MEMB      104             0.0000000000
     14768       132  DOPC      C26           -20.9990285588       16.5035629204       -8.1784214490  MEMB      104             0.0000000000
     14769       132  DOPC      H6R           -20.8682239039       15.4197651295       -7.9720400243  MEMB      104             0.0000000000
     14770       132  DOPC      H6S           -22.1035584841       16.4602008926       -8.2900213912  MEMB      104             0.0000000000
     14771       132  DOPC      C27           -20.7924261490       17.4341898267       -6.8940706375  MEMB      104             0.0000000000
     14772       132  DOPC      H7R           -19.7161107697       17.6025196181       -6.6760527360  MEMB      104             0.0000000000
     14773       132  DOPC      H7S           -21.4037908832       16.9709179552       -6.0903717130  MEMB      104             0.0000000000
     14774       132  DOPC      C28           -21.3245058475       18.8816355294       -7.3228409851  MEMB      104             0.0000000000
     14775       132  DOPC      H8R           -22.2970451215       18.6493461437       -7.8071238343  MEMB      104             0.0000000000
     14776       132  DOPC      H8S           -20.7251598579       19.4157948635       -8.0908115058  MEMB      104             0.0000000000
     14777       132  DOPC      C29           -21.4677243588       19.7317496362       -6.0865138581  MEMB      104             0.0000000000
     14778       132  DOPC      H9R           -20.5036310716       19.9561080469       -5.6067345432  MEMB      104             0.0000000000
     14779       132  DOPC      C210          -22.5268074057       20.2557899081       -5.4769270587  MEMB      104             0.0000000000
     14780       132  DOPC      H10R          -22.3778088560       20.8573244434       -4.5681054309  MEMB      104             0.0000000000
     14781       132  DOPC      C211          -23.9332727146       20.1765276394       -5.8896331334  MEMB      104             0.0000000000
     14782       132  DOPC      H11R          -24.1542547987       19.9469417402       -6.9539535679  MEMB      104             0.0000000000
     14783       132  DOPC      H11S          -24.4976833321       21.0867120771       -5.5941242314  MEMB      104             0.0000000000
     14784       132  DOPC      C212          -24.6248253939       19.0744163280       -5.1498283967  MEMB      104             0.0000000000
     14785       132  DOPC      H12R          -24.1942631693       18.0546149836       -5.2443932964  MEMB      104             0.0000000000
     14786       132  DOPC      H12S          -25.6387932028       19.0000453617       -5.5977783523  MEMB      104             0.0000000000
     14787       132  DOPC      C213          -24.9016676661       19.2683654242       -3.6461109246  MEMB      104             0.0000000000
     14788       132  DOPC      H13R          -25.0225581246       20.3555990648       -3.4521270169  MEMB      104             0.0000000000
     14789       132  DOPC      H13S          -24.1332436432       18.8007508778       -2.9940508079  MEMB      104             0.0000000000
     14790       132  DOPC      C214          -26.2214509772       18.5772727129       -3.2006513058  MEMB      104             0.0000000000
     14791       132  DOPC      H14R          -26.9794927553       18.7137017329       -4.0013266733  MEMB      104             0.0000000000
     14792       132  DOPC      H14S          -26.5206881472       18.9898039412       -2.2134344743  MEMB      104             0.0000000000
     14793       132  DOPC      C215          -26.1440245214       17.0514360416       -3.1430836738  MEMB      104             0.0000000000
     14794       132  DOPC      H15R          -25.2336534001       16.8945183334       -2.5258945561  MEMB      104             0.0000000000
     14795       132  DOPC      H15S          -25.9734125855       16.6906142098       -4.1799142633  MEMB      104             0.0000000000
     14796       132  DOPC      C216          -27.3367517223       16.2446132246       -2.6603976394  MEMB      104             0.0000000000
     14797       132  DOPC      H16R          -28.1295067009       16.5465807626       -3.3778076037  MEMB      104             0.0000000000
     14798       132  DOPC      H16S          -27.6306447655       16.5129776796       -1.6231288252  MEMB      104             0.0000000000
     14799       132  DOPC      C217          -27.0525203829       14.7760306464       -2.7898798735  MEMB      104             0.0000000000
     14800       132  DOPC      H17R          -25.9652481224       14.6350296056       -2.6102167384  MEMB      104             0.0000000000
     14801       132  DOPC      H17S          -27.2027670006       14.4691638415       -3.8470360220  MEMB      104             0.0000000000
     14802       132  DOPC      C218          -27.7926832484       13.9224413501       -1.7531300038  MEMB      104             0.0000000000
     14803       132  DOPC      H18R          -28.7879859171       14.4072694257       -1.6602038019  MEMB      104             0.0000000000
     14804       132  DOPC      H18S          -27.3678690017       14.0126993975       -0.7305325150  MEMB      104             0.0000000000
     14805       132  DOPC      H18T          -27.9495032864       12.8774421617       -2.0962118318  MEMB      104             0.0000000000
     14806       132  DOPC      C33           -27.0325092963       18.6550831527      -12.7735229067  MEMB      104             0.0000000000
     14807       132  DOPC      H3X           -27.6477769208       17.7453854640      -12.6055449595  MEMB      104             0.0000000000
     14808       132  DOPC      H3Y           -27.4733179122       19.2302163731      -13.6156814430  MEMB      104             0.0000000000
     14809       132  DOPC      C34           -27.2453496055       19.5006973715      -11.4752058115  MEMB      104             0.0000000000
     14810       132  DOPC      H4X           -28.2884154709       19.7190989964      -11.1611426831  MEMB      104             0.0000000000
     14811       132  DOPC      H4Y           -26.6660073040       20.3927643948      -11.7959865625  MEMB      104             0.0000000000
     14812       132  DOPC      C35           -26.5866922874       18.9054277266      -10.2341389965  MEMB      104             0.0000000000
     14813       132  DOPC      H5X           -26.4664613720       19.7199309503       -9.4881828453  MEMB      104             0.0000000000
     14814       132  DOPC      H5Y           -25.5579734945       18.5424421143      -10.4446140899  MEMB      104             0.0000000000
     14815       132  DOPC      C36           -27.3941352923       17.8302250866       -9.5115279754  MEMB      104             0.0000000000
     14816       132  DOPC      H6X           -28.4149748830       18.2679683473       -9.4872600811  MEMB      104             0.0000000000
     14817       132  DOPC      H6Y           -27.5136242288       16.9985251546      -10.2383835970  MEMB      104             0.0000000000
     14818       132  DOPC      C37           -27.0379569210       17.4618851881       -8.1041896911  MEMB      104             0.0000000000
     14819       132  DOPC      H7X           -27.3430722497       18.2845884491       -7.4227317932  MEMB      104             0.0000000000
     14820       132  DOPC      H7Y           -27.5841347041       16.5214475259       -7.8770601257  MEMB      104             0.0000000000
     14821       132  DOPC      C38           -25.4967278949       17.2967420445       -7.8854001966  MEMB      104             0.0000000000
     14822       132  DOPC      H8X           -25.5173241131       16.9232666467       -6.8392585726  MEMB      104             0.0000000000
     14823       132  DOPC      H8Y           -25.1194744719       18.3381306011       -7.9720628691  MEMB      104             0.0000000000
     14824       132  DOPC      C39           -24.6612727856       16.3338203408       -8.6348951668  MEMB      104             0.0000000000
     14825       132  DOPC      H9X           -24.0446135093       16.8379910232       -9.3935407408  MEMB      104             0.0000000000
     14826       132  DOPC      C310          -24.4273048224       15.0282223837       -8.3006589441  MEMB      104             0.0000000000
     14827       132  DOPC      H10X          -23.5570698354       14.5579463384       -8.7818360989  MEMB      104             0.0000000000
     14828       132  DOPC      C311          -24.9634575232       14.2340534947       -7.1666581120  MEMB      104             0.0000000000
     14829       132  DOPC      H11X          -25.2040454537       13.2350169363       -7.5889898865  MEMB      104             0.0000000000
     14830       132  DOPC      H11Y          -25.8835260867       14.7009127260       -6.7545454066  MEMB      104             0.0000000000
     14831       132  DOPC      C312          -23.8882851266       13.9466600218       -6.0845146858  MEMB      104             0.0000000000
     14832       132  DOPC      H12X          -22.9610747945       13.5145209194       -6.5179406573  MEMB      104             0.0000000000
     14833       132  DOPC      H12Y          -24.3064509795       13.0833901051       -5.5239582580  MEMB      104             0.0000000000
     14834       132  DOPC      C313          -23.5056163111       15.0806794165       -5.2158541547  MEMB      104             0.0000000000
     14835       132  DOPC      H13X          -23.2092453982       15.9855108091       -5.7883624752  MEMB      104             0.0000000000
     14836       132  DOPC      H13Y          -24.3347454288       15.4201618654       -4.5588787067  MEMB      104             0.0000000000
     14837       132  DOPC      C314          -22.5374042899       14.6590651942       -4.0849000472  MEMB      104             0.0000000000
     14838       132  DOPC      H14X          -21.5709575597       14.2718081036       -4.4726302824  MEMB      104             0.0000000000
     14839       132  DOPC      H14Y          -22.2444824884       15.5339915652       -3.4660128669  MEMB      104             0.0000000000
     14840       132  DOPC      C315          -23.0866838499       13.6237552667       -3.0427787574  MEMB      104             0.0000000000
     14841       132  DOPC      H15X          -23.4252476978       12.6996674856       -3.5582952150  MEMB      104             0.0000000000
     14842       132  DOPC      H15Y          -24.0565103287       13.9187386810       -2.5880893202  MEMB      104             0.0000000000
     14843       132  DOPC      C316          -22.2043562142       13.3866113034       -1.8466873300  MEMB      104             0.0000000000
     14844       132  DOPC      H16X          -22.4052969361       12.3822222943       -1.4164002386  MEMB      104             0.0000000000
     14845       132  DOPC      H16Y          -21.1161900614       13.3417497958       -2.0662388347  MEMB      104             0.0000000000
     14846       132  DOPC      C317          -22.3209113350       14.3576500338       -0.5977377368  MEMB      104             0.0000000000
     14847       132  DOPC      H17X          -23.3965452255       14.5646750838       -0.4120646870  MEMB      104             0.0000000000
     14848       132  DOPC      H17Y          -21.9892811036       13.8029531126        0.3059512426  MEMB      104             0.0000000000
     14849       132  DOPC      C318          -21.5828235908       15.6891782858       -0.6049085513  MEMB      104             0.0000000000
     14850       132  DOPC      H18X          -22.1569706400       16.5436280691       -1.0227500745  MEMB      104             0.0000000000
     14851       132  DOPC      H18Y          -21.2701021787       15.8936955068        0.4413705078  MEMB      104             0.0000000000
     14852       132  DOPC      H18Z          -20.5747947260       15.6645139808       -1.0713745993  MEMB      104             0.0000000000
     14853       133  DOPC      N               5.0647250297      -29.0281229799      -17.2242151769  MEMB      105             0.0000000000
     14854       133  DOPC      C12             5.0331600433      -28.5651160727      -18.6746134557  MEMB      105             0.0000000000
     14855       133  DOPC      H12A            6.0183851171      -28.7068005548      -19.0937280987  MEMB      105             0.0000000000
     14856       133  DOPC      H12B            4.9178473319      -27.4916208515      -18.6479501471  MEMB      105             0.0000000000
     14857       133  DOPC      C13             3.7108255366      -28.9828362736      -16.5344732786  MEMB      105             0.0000000000
     14858       133  DOPC      H13A            3.7442312882      -29.4425265634      -15.5577599189  MEMB      105             0.0000000000
     14859       133  DOPC      H13B            3.3680294292      -27.9659521297      -16.4126629737  MEMB      105             0.0000000000
     14860       133  DOPC      H13C            2.9575701896      -29.4196039926      -17.1734099835  MEMB      105             0.0000000000
     14861       133  DOPC      C14             6.0509929335      -28.1187099594      -16.5247008412  MEMB      105             0.0000000000
     14862       133  DOPC      H14A            5.5806464601      -27.1549784301      -16.3966548023  MEMB      105             0.0000000000
     14863       133  DOPC      H14B            6.1937441969      -28.5269127946      -15.5350581064  MEMB      105             0.0000000000
     14864       133  DOPC      H14C            6.9390167188      -27.9068535902      -17.1017022363  MEMB      105             0.0000000000
     14865       133  DOPC      C15             5.5633610813      -30.4268197933      -17.1402321439  MEMB      105             0.0000000000
     14866       133  DOPC      H15A            4.8008229768      -31.0972865632      -17.5082129166  MEMB      105             0.0000000000
     14867       133  DOPC      H15B            5.7103040405      -30.6593206055      -16.0958418080  MEMB      105             0.0000000000
     14868       133  DOPC      H15C            6.4375403279      -30.6017525846      -17.7498295817  MEMB      105             0.0000000000
     14869       133  DOPC      C11             3.9314598701      -29.2245949276      -19.5068491098  MEMB      105             0.0000000000
     14870       133  DOPC      H11A            2.9052012581      -29.0046493986      -19.1425162758  MEMB      105             0.0000000000
     14871       133  DOPC      H11B            4.0284253422      -28.5668792845      -20.3969776661  MEMB      105             0.0000000000
     14872       133  DOPC      P               5.1740142668      -31.1816714261      -20.7275142574  MEMB      105             0.0000000000
     14873       133  DOPC      O13             6.5123300880      -30.6788867989      -20.2827318919  MEMB      105             0.0000000000
     14874       133  DOPC      O14             4.6012285322      -30.7476060158      -22.0366092981  MEMB      105             0.0000000000
     14875       133  DOPC      O12             4.1311688392      -30.6850042321      -19.5966813303  MEMB      105             0.0000000000
     14876       133  DOPC      O11             5.1319418840      -32.7143519235      -20.7513792067  MEMB      105             0.0000000000
     14877       133  DOPC      C1              6.1448586827      -33.4917007303      -20.1156989786  MEMB      105             0.0000000000
     14878       133  DOPC      HA              6.9871504319      -32.9071864795      -19.6876704688  MEMB      105             0.0000000000
     14879       133  DOPC      HB              6.6014516996      -34.2049418737      -20.8348172109  MEMB      105             0.0000000000
     14880       133  DOPC      C2              5.5065104732      -34.2818544654      -18.9195117771  MEMB      105             0.0000000000
     14881       133  DOPC      HS              5.0469951703      -35.2591410434      -19.1804273944  MEMB      105             0.0000000000
     14882       133  DOPC      O21             4.4262407598      -33.5098945551      -18.3166138416  MEMB      105             0.0000000000
     14883       133  DOPC      C21             3.6260031234      -34.0554171907      -17.4853618229  MEMB      105             0.0000000000
     14884       133  DOPC      O22             3.6137850634      -35.2503140209      -17.1749765389  MEMB      105             0.0000000000
     14885       133  DOPC      C22             2.5634310866      -33.0042857759      -17.0434738687  MEMB      105             0.0000000000
     14886       133  DOPC      H2R             1.5814332122      -33.1503866504      -17.5421280653  MEMB      105             0.0000000000
     14887       133  DOPC      H2S             3.0330253572      -31.9974567456      -17.0336070354  MEMB      105             0.0000000000
     14888       133  DOPC      C3              6.5634113901      -34.5846846528      -17.8755842360  MEMB      105             0.0000000000
     14889       133  DOPC      HX              7.3944081250      -35.1689097322      -18.3255247922  MEMB      105             0.0000000000
     14890       133  DOPC      HY              6.1613654842      -35.3109295331      -17.1371745955  MEMB      105             0.0000000000
     14891       133  DOPC      O31             7.0226669985      -33.3961294314      -17.2265262176  MEMB      105             0.0000000000
     14892       133  DOPC      C31             8.1126982631      -33.5997302484      -16.4894672922  MEMB      105             0.0000000000
     14893       133  DOPC      O32             8.5477650084      -34.7142415116      -16.1860413935  MEMB      105             0.0000000000
     14894       133  DOPC      C32             8.8534337424      -32.3759590829      -16.2746792816  MEMB      105             0.0000000000
     14895       133  DOPC      H2X             9.9365986434      -32.4838279434      -16.0523311094  MEMB      105             0.0000000000
     14896       133  DOPC      H2Y             8.7393385389      -31.6164365887      -17.0774426500  MEMB      105             0.0000000000
     14897       133  DOPC      C23             2.0890590992      -33.2858922851      -15.5510696867  MEMB      105             0.0000000000
     14898       133  DOPC      H3R             1.9495369492      -34.3813862126      -15.4296287463  MEMB      105             0.0000000000
     14899       133  DOPC      H3S             1.1100919045      -32.7679207272      -15.4636058548  MEMB      105             0.0000000000
     14900       133  DOPC      C24             3.0212468727      -32.9254124089      -14.3700666373  MEMB      105             0.0000000000
     14901       133  DOPC      H4R             3.9992045527      -33.4452412632      -14.4578044122  MEMB      105             0.0000000000
     14902       133  DOPC      H4S             2.5216865328      -33.3767732625      -13.4863055256  MEMB      105             0.0000000000
     14903       133  DOPC      C25             3.2277176819      -31.4338402422      -14.0576374776  MEMB      105             0.0000000000
     14904       133  DOPC      H5R             2.2137819703      -30.9896479612      -14.1522350038  MEMB      105             0.0000000000
     14905       133  DOPC      H5S             3.9637158191      -30.9438167562      -14.7303225618  MEMB      105             0.0000000000
     14906       133  DOPC      C26             3.6304753020      -31.0554870524      -12.5780935677  MEMB      105             0.0000000000
     14907       133  DOPC      H6R             2.8215993871      -31.5965668156      -12.0421144416  MEMB      105             0.0000000000
     14908       133  DOPC      H6S             3.4634291232      -29.9636964333      -12.4580524907  MEMB      105             0.0000000000
     14909       133  DOPC      C27             4.8898449241      -31.6740466086      -12.1126762267  MEMB      105             0.0000000000
     14910       133  DOPC      H7R             5.7903281404      -31.3121051545      -12.6534621840  MEMB      105             0.0000000000
     14911       133  DOPC      H7S             4.8309127804      -32.7826969169      -12.1544177593  MEMB      105             0.0000000000
     14912       133  DOPC      C28             5.0631421570      -31.5163254293      -10.5614249635  MEMB      105             0.0000000000
     14913       133  DOPC      H8R             6.0874441756      -31.7253005475      -10.1853183148  MEMB      105             0.0000000000
     14914       133  DOPC      H8S             4.4754241835      -32.2660918838       -9.9897967148  MEMB      105             0.0000000000
     14915       133  DOPC      C29             4.8025000138      -30.1131403952      -10.1185940172  MEMB      105             0.0000000000
     14916       133  DOPC      H9R             4.6793840160      -29.2892164905      -10.8369198356  MEMB      105             0.0000000000
     14917       133  DOPC      C210            4.6132691462      -29.6966035240       -8.8454365059  MEMB      105             0.0000000000
     14918       133  DOPC      H10R            4.4358898252      -28.6110066661       -8.8414330460  MEMB      105             0.0000000000
     14919       133  DOPC      C211            4.6061074312      -30.5640417665       -7.5948292349  MEMB      105             0.0000000000
     14920       133  DOPC      H11R            5.6360463393      -30.8345829570       -7.2780418388  MEMB      105             0.0000000000
     14921       133  DOPC      H11S            4.1872447964      -31.5353535777       -7.9345770326  MEMB      105             0.0000000000
     14922       133  DOPC      C212            3.7811724169      -30.0162804835       -6.3832101904  MEMB      105             0.0000000000
     14923       133  DOPC      H12R            2.6825923766      -29.9911747324       -6.5469565280  MEMB      105             0.0000000000
     14924       133  DOPC      H12S            4.0808517050      -28.9535090914       -6.2606118618  MEMB      105             0.0000000000
     14925       133  DOPC      C213            4.1186355183      -30.7779452243       -5.1703895482  MEMB      105             0.0000000000
     14926       133  DOPC      H13R            3.5775908055      -30.2658401776       -4.3461690513  MEMB      105             0.0000000000
     14927       133  DOPC      H13S            5.1962019771      -30.7518627424       -4.9011477584  MEMB      105             0.0000000000
     14928       133  DOPC      C214            3.5751737033      -32.2083870956       -5.1801118562  MEMB      105             0.0000000000
     14929       133  DOPC      H14R            3.9722384065      -32.8988544870       -5.9546540097  MEMB      105             0.0000000000
     14930       133  DOPC      H14S            2.4703326535      -32.1133946786       -5.2481157889  MEMB      105             0.0000000000
     14931       133  DOPC      C215            3.7647293419      -32.8664107117       -3.7430266106  MEMB      105             0.0000000000
     14932       133  DOPC      H15R            2.9492662565      -33.5994998371       -3.5643612461  MEMB      105             0.0000000000
     14933       133  DOPC      H15S            3.6619881904      -31.9643154695       -3.1027217054  MEMB      105             0.0000000000
     14934       133  DOPC      C216            5.2723372941      -33.4182261728       -3.5928781537  MEMB      105             0.0000000000
     14935       133  DOPC      H16R            5.8786916124      -32.5230047150       -3.3374694982  MEMB      105             0.0000000000
     14936       133  DOPC      H16S            5.5189223176      -34.0014191588       -4.5057873928  MEMB      105             0.0000000000
     14937       133  DOPC      C217            5.5522724890      -34.4710029670       -2.5264894516  MEMB      105             0.0000000000
     14938       133  DOPC      H17R            5.0729632701      -35.4225033171       -2.8414984676  MEMB      105             0.0000000000
     14939       133  DOPC      H17S            5.0352115536      -34.2253078295       -1.5743321252  MEMB      105             0.0000000000
     14940       133  DOPC      C218            7.0145424013      -34.5525058448       -2.3229562565  MEMB      105             0.0000000000
     14941       133  DOPC      H18R            7.3714670964      -33.5146639466       -2.1503001197  MEMB      105             0.0000000000
     14942       133  DOPC      H18S            7.5627654635      -35.0596889388       -3.1454740555  MEMB      105             0.0000000000
     14943       133  DOPC      H18T            7.1584469797      -35.0975926269       -1.3656198737  MEMB      105             0.0000000000
     14944       133  DOPC      C33             8.3036719101      -31.6336586608      -15.0259292311  MEMB      105             0.0000000000
     14945       133  DOPC      H3X             8.6708594082      -32.2628171300      -14.1870884968  MEMB      105             0.0000000000
     14946       133  DOPC      H3Y             7.2030854947      -31.5946575331      -14.8792677040  MEMB      105             0.0000000000
     14947       133  DOPC      C34             8.8917796472      -30.2683354235      -14.8735880319  MEMB      105             0.0000000000
     14948       133  DOPC      H4X             8.7176905932      -29.6454924691      -15.7769600710  MEMB      105             0.0000000000
     14949       133  DOPC      H4Y             9.9907754808      -30.3763493354      -14.9955001002  MEMB      105             0.0000000000
     14950       133  DOPC      C35             8.6668734888      -29.4773106948      -13.6012811942  MEMB      105             0.0000000000
     14951       133  DOPC      H5X             7.6238523018      -29.0978101185      -13.6503421482  MEMB      105             0.0000000000
     14952       133  DOPC      H5Y             9.3070527723      -28.5715821004      -13.5368807725  MEMB      105             0.0000000000
     14953       133  DOPC      C36             8.9955560618      -30.3404312993      -12.3030487023  MEMB      105             0.0000000000
     14954       133  DOPC      H6X             8.2042652363      -31.1086273330      -12.4374159133  MEMB      105             0.0000000000
     14955       133  DOPC      H6Y             9.9909174662      -30.8015813582      -12.4788824910  MEMB      105             0.0000000000
     14956       133  DOPC      C37             8.8526835789      -29.3449453186      -11.1557764344  MEMB      105             0.0000000000
     14957       133  DOPC      H7X             9.5952378300      -28.5564766758      -11.4032667261  MEMB      105             0.0000000000
     14958       133  DOPC      H7Y             7.8302775602      -28.9203700756      -11.0622732377  MEMB      105             0.0000000000
     14959       133  DOPC      C38             9.0161962808      -29.8057475321       -9.6851906356  MEMB      105             0.0000000000
     14960       133  DOPC      H8X             8.0824355882      -30.3162050004       -9.3660589022  MEMB      105             0.0000000000
     14961       133  DOPC      H8Y             9.0154985806      -28.8499179510       -9.1188778820  MEMB      105             0.0000000000
     14962       133  DOPC      C39            10.2386635435      -30.6653588730       -9.4418136062  MEMB      105             0.0000000000
     14963       133  DOPC      H9X            11.2422975243      -30.2174583605       -9.4876839065  MEMB      105             0.0000000000
     14964       133  DOPC      C310           10.3632070697      -31.9899468279       -9.1909432192  MEMB      105             0.0000000000
     14965       133  DOPC      H10X           11.3938274541      -32.3740637919       -9.2075318315  MEMB      105             0.0000000000
     14966       133  DOPC      C311            9.2538554080      -33.0411601284       -9.0619298912  MEMB      105             0.0000000000
     14967       133  DOPC      H11X            9.4254231092      -33.8468476750       -9.8074181216  MEMB      105             0.0000000000
     14968       133  DOPC      H11Y            8.2837969288      -32.5291412722       -9.2384068879  MEMB      105             0.0000000000
     14969       133  DOPC      C312            9.1554161465      -33.6200426548       -7.6768219967  MEMB      105             0.0000000000
     14970       133  DOPC      H12X           10.1927378562      -33.9248538999       -7.4211372874  MEMB      105             0.0000000000
     14971       133  DOPC      H12Y            8.5762837203      -34.5665715370       -7.7316838341  MEMB      105             0.0000000000
     14972       133  DOPC      C313            8.3672342753      -32.6755574606       -6.6779372288  MEMB      105             0.0000000000
     14973       133  DOPC      H13X            7.3133178319      -32.5104708874       -6.9883036502  MEMB      105             0.0000000000
     14974       133  DOPC      H13Y            8.0631084181      -33.2564923466       -5.7810849558  MEMB      105             0.0000000000
     14975       133  DOPC      C314            9.1426617053      -31.4637931004       -6.1483901554  MEMB      105             0.0000000000
     14976       133  DOPC      H14X           10.2248786141      -31.4288578698       -6.3972015281  MEMB      105             0.0000000000
     14977       133  DOPC      H14Y            8.7465905438      -30.6149599032       -6.7458263918  MEMB      105             0.0000000000
     14978       133  DOPC      C315            8.8619517032      -31.1009904727       -4.7578492912  MEMB      105             0.0000000000
     14979       133  DOPC      H15X            9.3272118582      -31.7204247608       -3.9615101868  MEMB      105             0.0000000000
     14980       133  DOPC      H15Y            7.7847239967      -31.2622627414       -4.5390050929  MEMB      105             0.0000000000
     14981       133  DOPC      C316            9.3769789507      -29.7404614786       -4.4001676157  MEMB      105             0.0000000000
     14982       133  DOPC      H16X           10.4859441345      -29.6750841959       -4.4157500368  MEMB      105             0.0000000000
     14983       133  DOPC      H16Y            8.9669147155      -28.9724784104       -5.0903633350  MEMB      105             0.0000000000
     14984       133  DOPC      C317            8.9301627013      -29.2455791094       -2.9432942396  MEMB      105             0.0000000000
     14985       133  DOPC      H17X            7.8235937367      -29.3131211922       -3.0158483276  MEMB      105             0.0000000000
     14986       133  DOPC      H17Y            9.3624212354      -30.0142953608       -2.2676094040  MEMB      105             0.0000000000
     14987       133  DOPC      C318            9.5344730919      -27.9055852933       -2.4509281733  MEMB      105             0.0000000000
     14988       133  DOPC      H18X            9.2784010674      -27.7988491474       -1.3751241325  MEMB      105             0.0000000000
     14989       133  DOPC      H18Y           10.6429532335      -27.9695290630       -2.4897103389  MEMB      105             0.0000000000
     14990       133  DOPC      H18Z            9.1406165551      -27.1047992598       -3.1126989329  MEMB      105             0.0000000000
     14991       134  DOPC      N              14.4840584199       29.2736645104      -18.2813095769  MEMB      106             0.0000000000
     14992       134  DOPC      C12            15.3700988721       28.7148333304      -19.4709623213  MEMB      106             0.0000000000
     14993       134  DOPC      H12A           16.3983027167       28.9676822900      -19.2582079133  MEMB      106             0.0000000000
     14994       134  DOPC      H12B           15.0461889211       29.1320599370      -20.4129836786  MEMB      106             0.0000000000
     14995       134  DOPC      C13            13.0830005007       29.3546660427      -18.5903795538  MEMB      106             0.0000000000
     14996       134  DOPC      H13A           12.8925358456       29.9038535499      -19.5006082411  MEMB      106             0.0000000000
     14997       134  DOPC      H13B           12.7170704399       28.3527840950      -18.7598721445  MEMB      106             0.0000000000
     14998       134  DOPC      H13C           12.6424072298       29.9326066300      -17.7914663045  MEMB      106             0.0000000000
     14999       134  DOPC      C14            14.9272951914       30.7180618742      -17.9992481311  MEMB      106             0.0000000000
     15000       134  DOPC      H14A           14.3262372240       30.9483716478      -17.1320188251  MEMB      106             0.0000000000
     15001       134  DOPC      H14B           15.9414710195       30.6632899287      -17.6320322046  MEMB      106             0.0000000000
     15002       134  DOPC      H14C           14.7139383218       31.4321569415      -18.7808791447  MEMB      106             0.0000000000
     15003       134  DOPC      C15            14.8251512249       28.4869284774      -17.0734815716  MEMB      106             0.0000000000
     15004       134  DOPC      H15A           14.2541951677       29.0589925556      -16.3571353761  MEMB      106             0.0000000000
     15005       134  DOPC      H15B           15.8080363888       28.6595242064      -16.6605073692  MEMB      106             0.0000000000
     15006       134  DOPC      H15C           14.6325188562       27.4242675534      -17.0801639385  MEMB      106             0.0000000000
     15007       134  DOPC      C11            15.4271164824       27.1929667011      -19.7586011139  MEMB      106             0.0000000000
     15008       134  DOPC      H11A           15.9951816565       26.9341940526      -20.6776547363  MEMB      106             0.0000000000
     15009       134  DOPC      H11B           15.8433414375       26.6974175555      -18.8555458224  MEMB      106             0.0000000000
     15010       134  DOPC      P              13.2677622447       25.5295384885      -19.5838938293  MEMB      106             0.0000000000
     15011       134  DOPC      O13            14.1574288746       24.7191949540      -18.7740239558  MEMB      106             0.0000000000
     15012       134  DOPC      O14            12.6193867051       24.8863592450      -20.7659056492  MEMB      106             0.0000000000
     15013       134  DOPC      O12            14.0761450522       26.7595621905      -20.0210639968  MEMB      106             0.0000000000
     15014       134  DOPC      O11            12.1206603363       26.2144035896      -18.6811302900  MEMB      106             0.0000000000
     15015       134  DOPC      C1             11.4391959110       25.3808211509      -17.7192234390  MEMB      106             0.0000000000
     15016       134  DOPC      HA             12.1423783828       24.8195434788      -17.0674393170  MEMB      106             0.0000000000
     15017       134  DOPC      HB             10.7413573411       24.6798465222      -18.2251650521  MEMB      106             0.0000000000
     15018       134  DOPC      C2             10.6607817559       26.2565185648      -16.7151547399  MEMB      106             0.0000000000
     15019       134  DOPC      HS              9.9318624252       26.8373747264      -17.3198063741  MEMB      106             0.0000000000
     15020       134  DOPC      O21            11.5707290945       27.1281650669      -16.0349245423  MEMB      106             0.0000000000
     15021       134  DOPC      C21            11.0569483383       28.3405941868      -15.5682346220  MEMB      106             0.0000000000
     15022       134  DOPC      O22             9.9496210898       28.7215064347      -15.7820310571  MEMB      106             0.0000000000
     15023       134  DOPC      C22            12.0744118530       28.9133462452      -14.5007758493  MEMB      106             0.0000000000
     15024       134  DOPC      H2R            12.9593112908       29.3922029299      -14.9719125828  MEMB      106             0.0000000000
     15025       134  DOPC      H2S            12.3990188273       28.0517169685      -13.8790470865  MEMB      106             0.0000000000
     15026       134  DOPC      C3              9.8173105586       25.4280427205      -15.7223744886  MEMB      106             0.0000000000
     15027       134  DOPC      HX              8.9234250675       25.0086949829      -16.2317239600  MEMB      106             0.0000000000
     15028       134  DOPC      HY              9.3540506249       26.2022076736      -15.0740074234  MEMB      106             0.0000000000
     15029       134  DOPC      O31            10.7034034207       24.5217218719      -15.0452085130  MEMB      106             0.0000000000
     15030       134  DOPC      C31            10.1318071044       23.8715341152      -14.0807952350  MEMB      106             0.0000000000
     15031       134  DOPC      O32             8.9613782111       23.8869611672      -13.7395336695  MEMB      106             0.0000000000
     15032       134  DOPC      C32            11.2092261281       22.9949565729      -13.4500657167  MEMB      106             0.0000000000
     15033       134  DOPC      H2X            10.7815741614       22.0987940762      -12.9517407791  MEMB      106             0.0000000000
     15034       134  DOPC      H2Y            11.9275938686       22.6563711904      -14.2270010369  MEMB      106             0.0000000000
     15035       134  DOPC      C23            11.3999613875       29.9859805797      -13.6726629765  MEMB      106             0.0000000000
     15036       134  DOPC      H3R            11.0934007966       30.8436695336      -14.3088323325  MEMB      106             0.0000000000
     15037       134  DOPC      H3S            12.1514511902       30.3257608057      -12.9282611971  MEMB      106             0.0000000000
     15038       134  DOPC      C24            10.2756916949       29.4398420897      -12.7873233877  MEMB      106             0.0000000000
     15039       134  DOPC      H4R             9.8270535596       28.5025698510      -13.1804719833  MEMB      106             0.0000000000
     15040       134  DOPC      H4S             9.3890306354       30.1055146396      -12.7163792613  MEMB      106             0.0000000000
     15041       134  DOPC      C25            10.7897159118       29.2861662129      -11.2996117775  MEMB      106             0.0000000000
     15042       134  DOPC      H5R            10.7448329698       30.3303756039      -10.9228722214  MEMB      106             0.0000000000
     15043       134  DOPC      H5S            11.7985358344       28.8237871236      -11.2466097725  MEMB      106             0.0000000000
     15044       134  DOPC      C26             9.9897689057       28.2518284089      -10.4704586169  MEMB      106             0.0000000000
     15045       134  DOPC      H6R             9.8878643332       27.2550395133      -10.9504046481  MEMB      106             0.0000000000
     15046       134  DOPC      H6S             8.9984222442       28.7532065147      -10.4835933646  MEMB      106             0.0000000000
     15047       134  DOPC      C27            10.5967559333       28.0538956576       -9.1090230848  MEMB      106             0.0000000000
     15048       134  DOPC      H7R            10.8258763859       29.0032267106       -8.5793102728  MEMB      106             0.0000000000
     15049       134  DOPC      H7S            11.6276517271       27.7004623636       -9.3250318239  MEMB      106             0.0000000000
     15050       134  DOPC      C28             9.8065562259       27.0625756745       -8.1872680742  MEMB      106             0.0000000000
     15051       134  DOPC      H8R             8.8624831092       27.5610797735       -7.8797938079  MEMB      106             0.0000000000
     15052       134  DOPC      H8S            10.3689129820       26.9203347151       -7.2397223234  MEMB      106             0.0000000000
     15053       134  DOPC      C29             9.4014701316       25.7926672612       -8.8491683473  MEMB      106             0.0000000000
     15054       134  DOPC      H9R             8.3813709654       25.7985892066       -9.2607054826  MEMB      106             0.0000000000
     15055       134  DOPC      C210           10.2538382590       24.8033888050       -9.0830901832  MEMB      106             0.0000000000
     15056       134  DOPC      H10R            9.9279638359       23.9127755092       -9.6404175340  MEMB      106             0.0000000000
     15057       134  DOPC      C211           11.7042457208       24.8670171775       -8.7246617897  MEMB      106             0.0000000000
     15058       134  DOPC      H11R           11.9369285960       25.4574854754       -7.8127812374  MEMB      106             0.0000000000
     15059       134  DOPC      H11S           12.2939426859       25.3421619735       -9.5375679790  MEMB      106             0.0000000000
     15060       134  DOPC      C212           12.2772564211       23.4815690373       -8.5057489891  MEMB      106             0.0000000000
     15061       134  DOPC      H12R           13.3580406790       23.6620636126       -8.3223150267  MEMB      106             0.0000000000
     15062       134  DOPC      H12S           12.1880903682       22.9685216787       -9.4871525522  MEMB      106             0.0000000000
     15063       134  DOPC      C213           11.6031169545       22.4990408468       -7.5363584209  MEMB      106             0.0000000000
     15064       134  DOPC      H13R           12.1124873761       21.5116902161       -7.5374627346  MEMB      106             0.0000000000
     15065       134  DOPC      H13S           10.5526025160       22.4118331637       -7.8872649853  MEMB      106             0.0000000000
     15066       134  DOPC      C214           11.5289541610       23.0262345395       -6.1118030282  MEMB      106             0.0000000000
     15067       134  DOPC      H14R           10.9496685900       22.2459846797       -5.5733239646  MEMB      106             0.0000000000
     15068       134  DOPC      H14S           10.9673227169       23.9847451693       -6.1239859862  MEMB      106             0.0000000000
     15069       134  DOPC      C215           12.8476753260       23.1417582966       -5.3637008872  MEMB      106             0.0000000000
     15070       134  DOPC      H15R           13.4520380892       23.9402405681       -5.8448373577  MEMB      106             0.0000000000
     15071       134  DOPC      H15S           13.4066389291       22.1816484680       -5.3720686342  MEMB      106             0.0000000000
     15072       134  DOPC      C216           12.7433537283       23.5201571468       -3.8200535303  MEMB      106             0.0000000000
     15073       134  DOPC      H16R           11.8798356587       23.0890129592       -3.2698073132  MEMB      106             0.0000000000
     15074       134  DOPC      H16S           12.5672679318       24.6162760910       -3.7771808442  MEMB      106             0.0000000000
     15075       134  DOPC      C217           13.9860357160       23.3393946301       -2.9456632830  MEMB      106             0.0000000000
     15076       134  DOPC      H17R           14.1151990634       22.2709689965       -2.6697936005  MEMB      106             0.0000000000
     15077       134  DOPC      H17S           13.8537527864       23.8459457567       -1.9657520802  MEMB      106             0.0000000000
     15078       134  DOPC      C218           15.2973429012       23.7844245565       -3.5632137458  MEMB      106             0.0000000000
     15079       134  DOPC      H18R           15.0270606540       24.6462558409       -4.2101417080  MEMB      106             0.0000000000
     15080       134  DOPC      H18S           15.7105118686       22.9725458207       -4.1991894964  MEMB      106             0.0000000000
     15081       134  DOPC      H18T           16.1296617579       23.9179541717       -2.8395187457  MEMB      106             0.0000000000
     15082       134  DOPC      C33            11.9432035771       23.9151919013      -12.5667342068  MEMB      106             0.0000000000
     15083       134  DOPC      H3X            12.3939375638       23.2633454869      -11.7881100367  MEMB      106             0.0000000000
     15084       134  DOPC      H3Y            11.4120837068       24.6785528546      -11.9588586783  MEMB      106             0.0000000000
     15085       134  DOPC      C34            12.9677601003       24.7850954105      -13.3391357431  MEMB      106             0.0000000000
     15086       134  DOPC      H4X            12.5719321085       25.6991601749      -13.8311992604  MEMB      106             0.0000000000
     15087       134  DOPC      H4Y            13.4004458153       24.1584127796      -14.1480688115  MEMB      106             0.0000000000
     15088       134  DOPC      C35            14.0545190069       25.3132869291      -12.4191307681  MEMB      106             0.0000000000
     15089       134  DOPC      H5X            14.0657694291       24.7584679411      -11.4566488536  MEMB      106             0.0000000000
     15090       134  DOPC      H5Y            13.9501357750       26.3675335266      -12.0844829121  MEMB      106             0.0000000000
     15091       134  DOPC      C36            15.3957211162       25.3640077674      -13.1141772604  MEMB      106             0.0000000000
     15092       134  DOPC      H6X            15.6392819665       24.3055575906      -13.3480196430  MEMB      106             0.0000000000
     15093       134  DOPC      H6Y            15.1793104398       25.8183605274      -14.1046572509  MEMB      106             0.0000000000
     15094       134  DOPC      C37            16.5088197285       26.0425795058      -12.3097892319  MEMB      106             0.0000000000
     15095       134  DOPC      H7X            16.5386648653       25.7448407885      -11.2398446255  MEMB      106             0.0000000000
     15096       134  DOPC      H7Y            17.4767874825       25.7438340940      -12.7659803715  MEMB      106             0.0000000000
     15097       134  DOPC      C38            16.5480040333       27.5660692363      -12.4288719174  MEMB      106             0.0000000000
     15098       134  DOPC      H8X            16.2018616544       27.7244668901      -13.4726235164  MEMB      106             0.0000000000
     15099       134  DOPC      H8Y            17.5516559458       27.9699159892      -12.1760639670  MEMB      106             0.0000000000
     15100       134  DOPC      C39            15.5322411298       28.1555250424      -11.5010313464  MEMB      106             0.0000000000
     15101       134  DOPC      H9X            14.8023428832       28.6741989114      -12.1399565035  MEMB      106             0.0000000000
     15102       134  DOPC      C310           15.5743957133       28.2875744301      -10.1827600254  MEMB      106             0.0000000000
     15103       134  DOPC      H10X           14.7121763202       28.8343958018       -9.7734142949  MEMB      106             0.0000000000
     15104       134  DOPC      C311           16.6928162060       27.7685837151       -9.3217055712  MEMB      106             0.0000000000
     15105       134  DOPC      H11X           17.0321467484       28.5233594746       -8.5804296241  MEMB      106             0.0000000000
     15106       134  DOPC      H11Y           17.6657644222       27.5295706514       -9.8018777388  MEMB      106             0.0000000000
     15107       134  DOPC      C312           16.1241670666       26.6232529188       -8.4964937395  MEMB      106             0.0000000000
     15108       134  DOPC      H12X           16.9417617413       26.0764219627       -7.9799320399  MEMB      106             0.0000000000
     15109       134  DOPC      H12Y           15.5945056232       25.8738377889       -9.1227181975  MEMB      106             0.0000000000
     15110       134  DOPC      C313           15.0214171858       26.9770458735       -7.3916591513  MEMB      106             0.0000000000
     15111       134  DOPC      H13X           14.0566443307       27.0089641900       -7.9416734474  MEMB      106             0.0000000000
     15112       134  DOPC      H13Y           14.8246489260       26.0705441856       -6.7802197720  MEMB      106             0.0000000000
     15113       134  DOPC      C314           15.1758185309       28.2429517165       -6.5257683450  MEMB      106             0.0000000000
     15114       134  DOPC      H14X           16.0680829757       28.1600809504       -5.8690211941  MEMB      106             0.0000000000
     15115       134  DOPC      H14Y           15.2766988477       29.1123597208       -7.2100742719  MEMB      106             0.0000000000
     15116       134  DOPC      C315           13.8504828015       28.6688976488       -5.8161382951  MEMB      106             0.0000000000
     15117       134  DOPC      H15X           12.9677118505       28.3856068852       -6.4283336052  MEMB      106             0.0000000000
     15118       134  DOPC      H15Y           13.7847979165       29.7701549965       -5.6848421459  MEMB      106             0.0000000000
     15119       134  DOPC      C316           13.6997730956       28.0168102115       -4.4594885696  MEMB      106             0.0000000000
     15120       134  DOPC      H16X           13.2456148961       27.0226105296       -4.6585570437  MEMB      106             0.0000000000
     15121       134  DOPC      H16Y           14.6976818557       27.7993933258       -4.0221910836  MEMB      106             0.0000000000
     15122       134  DOPC      C317           12.7670463118       28.8593324986       -3.5883036426  MEMB      106             0.0000000000
     15123       134  DOPC      H17X           13.0033313771       29.9442318460       -3.5497884813  MEMB      106             0.0000000000
     15124       134  DOPC      H17Y           11.7433595863       28.8775322483       -4.0196441616  MEMB      106             0.0000000000
     15125       134  DOPC      C318           12.7246024414       28.3581482698       -2.1618786725  MEMB      106             0.0000000000
     15126       134  DOPC      H18X           11.7929686842       28.8030817125       -1.7514960159  MEMB      106             0.0000000000
     15127       134  DOPC      H18Y           12.5604296135       27.2609238244       -2.1030030337  MEMB      106             0.0000000000
     15128       134  DOPC      H18Z           13.4722464271       28.8103674426       -1.4756950287  MEMB      106             0.0000000000
     15129       135  DOPC      N               5.5184735405       33.0327695438      -18.6786044409  MEMB      107             0.0000000000
     15130       135  DOPC      C12             6.6223447349       32.5001805799      -19.5463731978  MEMB      107             0.0000000000
     15131       135  DOPC      H12A            7.4418734168       33.1668755307      -19.3221170042  MEMB      107             0.0000000000
     15132       135  DOPC      H12B            6.4192706592       32.6154775375      -20.6008245080  MEMB      107             0.0000000000
     15133       135  DOPC      C13             6.0807619560       32.8854379129      -17.2499073995  MEMB      107             0.0000000000
     15134       135  DOPC      H13A            5.3867964714       33.2687677250      -16.5165112197  MEMB      107             0.0000000000
     15135       135  DOPC      H13B            6.1780594476       31.8334447167      -17.0257563581  MEMB      107             0.0000000000
     15136       135  DOPC      H13C            7.0374290872       33.3866225951      -17.2485425258  MEMB      107             0.0000000000
     15137       135  DOPC      C14             4.1679130198       32.3204449705      -18.9468106643  MEMB      107             0.0000000000
     15138       135  DOPC      H14A            3.5634477234       32.9437402061      -18.3045297929  MEMB      107             0.0000000000
     15139       135  DOPC      H14B            3.9474752996       32.4119617216      -20.0001063577  MEMB      107             0.0000000000
     15140       135  DOPC      H14C            4.0863676979       31.3328193457      -18.5174552156  MEMB      107             0.0000000000
     15141       135  DOPC      C15             5.3297359350       34.4131484419      -19.0737308467  MEMB      107             0.0000000000
     15142       135  DOPC      H15A            5.2571554057       34.5057416687      -20.1473036113  MEMB      107             0.0000000000
     15143       135  DOPC      H15B            6.2528568780       34.9426470633      -18.8896685269  MEMB      107             0.0000000000
     15144       135  DOPC      H15C            4.5432271141       34.9341420322      -18.5480222538  MEMB      107             0.0000000000
     15145       135  DOPC      C11             7.1068808341       30.9953945874      -19.3160562878  MEMB      107             0.0000000000
     15146       135  DOPC      H11A            7.9359421416       30.8327624805      -20.0375332512  MEMB      107             0.0000000000
     15147       135  DOPC      H11B            7.6249798571       30.9225206248      -18.3359625366  MEMB      107             0.0000000000
     15148       135  DOPC      P               6.2364726092       28.6469637769      -19.2921275608  MEMB      107             0.0000000000
     15149       135  DOPC      O13             7.4020495288       28.1258395525      -20.0563890319  MEMB      107             0.0000000000
     15150       135  DOPC      O14             4.9499103641       27.9259480580      -19.3679828294  MEMB      107             0.0000000000
     15151       135  DOPC      O12             6.0138084037       30.1275287286      -19.6756573089  MEMB      107             0.0000000000
     15152       135  DOPC      O11             6.5782608490       28.7871465457      -17.7963604276  MEMB      107             0.0000000000
     15153       135  DOPC      C1              5.9872498996       28.0194700791      -16.7452131500  MEMB      107             0.0000000000
     15154       135  DOPC      HA              6.5614326234       28.3565800702      -15.8558358218  MEMB      107             0.0000000000
     15155       135  DOPC      HB              6.1719032561       26.9476275282      -16.9718800571  MEMB      107             0.0000000000
     15156       135  DOPC      C2              4.5459775456       28.4514286683      -16.3430610459  MEMB      107             0.0000000000
     15157       135  DOPC      HS              3.8233192371       28.2809438510      -17.1695118632  MEMB      107             0.0000000000
     15158       135  DOPC      O21             4.4567293109       29.8788544092      -16.0241876004  MEMB      107             0.0000000000
     15159       135  DOPC      C21             3.4083110010       30.3843010361      -15.4449283872  MEMB      107             0.0000000000
     15160       135  DOPC      O22             2.2764266743       29.9988726759      -15.5634793901  MEMB      107             0.0000000000
     15161       135  DOPC      C22             3.9437103551       31.5261075534      -14.5503968771  MEMB      107             0.0000000000
     15162       135  DOPC      H2R             3.4055676726       32.4475996000      -14.8595503612  MEMB      107             0.0000000000
     15163       135  DOPC      H2S             5.0508872201       31.6078231665      -14.5928577184  MEMB      107             0.0000000000
     15164       135  DOPC      C3              4.1317484048       27.5512541536      -15.1405441821  MEMB      107             0.0000000000
     15165       135  DOPC      HX              4.3191480892       26.4933710599      -15.4235387548  MEMB      107             0.0000000000
     15166       135  DOPC      HY              3.0313840142       27.6845607845      -15.0647258437  MEMB      107             0.0000000000
     15167       135  DOPC      O31             4.8589255510       27.8823416993      -13.9226339290  MEMB      107             0.0000000000
     15168       135  DOPC      C31             5.4235491929       26.9319740967      -13.2226626949  MEMB      107             0.0000000000
     15169       135  DOPC      O32             5.4925192311       25.7390267301      -13.5571999623  MEMB      107             0.0000000000
     15170       135  DOPC      C32             6.0840566365       27.5024153811      -12.0861077167  MEMB      107             0.0000000000
     15171       135  DOPC      H2X             5.3107461308       27.7599348573      -11.3311271181  MEMB      107             0.0000000000
     15172       135  DOPC      H2Y             6.7321765454       26.7403696352      -11.6028397461  MEMB      107             0.0000000000
     15173       135  DOPC      C23             3.5199680504       31.2990598581      -13.0816930602  MEMB      107             0.0000000000
     15174       135  DOPC      H3R             3.9323405150       30.3245714404      -12.7431040612  MEMB      107             0.0000000000
     15175       135  DOPC      H3S             2.4706685001       30.9681843331      -13.2360060288  MEMB      107             0.0000000000
     15176       135  DOPC      C24             3.7333807471       32.4983672964      -12.1594692649  MEMB      107             0.0000000000
     15177       135  DOPC      H4R             3.0599422290       32.2827550197      -11.3025487845  MEMB      107             0.0000000000
     15178       135  DOPC      H4S             3.2201383999       33.3382274809      -12.6747729109  MEMB      107             0.0000000000
     15179       135  DOPC      C25             5.1415250793       32.5875930628      -11.4889956606  MEMB      107             0.0000000000
     15180       135  DOPC      H5R             5.8873743813       32.7503389024      -12.2961781623  MEMB      107             0.0000000000
     15181       135  DOPC      H5S             5.3294811463       31.5989899464      -11.0181911392  MEMB      107             0.0000000000
     15182       135  DOPC      C26             5.2529052590       33.6381894042      -10.4636665162  MEMB      107             0.0000000000
     15183       135  DOPC      H6R             4.7948105353       34.5048059135      -10.9865867605  MEMB      107             0.0000000000
     15184       135  DOPC      H6S             6.3298595028       33.9013756064      -10.3913926743  MEMB      107             0.0000000000
     15185       135  DOPC      C27             4.4646389665       33.4494084304       -9.1159351493  MEMB      107             0.0000000000
     15186       135  DOPC      H7R             3.4314327117       33.2597168409       -9.4776296422  MEMB      107             0.0000000000
     15187       135  DOPC      H7S             4.5257868055       34.3088832438       -8.4145894725  MEMB      107             0.0000000000
     15188       135  DOPC      C28             4.7101982118       32.1181037036       -8.3158062873  MEMB      107             0.0000000000
     15189       135  DOPC      H8R             4.2324168333       31.4315798861       -9.0470596942  MEMB      107             0.0000000000
     15190       135  DOPC      H8S             4.1291070307       32.1131972902       -7.3689006948  MEMB      107             0.0000000000
     15191       135  DOPC      C29             6.1951909864       31.8949757836       -8.0857803056  MEMB      107             0.0000000000
     15192       135  DOPC      H9R             6.8988369461       32.7374547861       -8.1572741326  MEMB      107             0.0000000000
     15193       135  DOPC      C210            6.6561827471       30.7280810639       -7.5721275046  MEMB      107             0.0000000000
     15194       135  DOPC      H10R            7.7501329245       30.6280469783       -7.5149751002  MEMB      107             0.0000000000
     15195       135  DOPC      C211            5.8196966606       29.4982355373       -7.1550798259  MEMB      107             0.0000000000
     15196       135  DOPC      H11R            6.0238147151       28.5929965182       -7.7659804067  MEMB      107             0.0000000000
     15197       135  DOPC      H11S            4.7419086486       29.7539963843       -7.2404047786  MEMB      107             0.0000000000
     15198       135  DOPC      C212            6.0026119809       28.8824690628       -5.7811215983  MEMB      107             0.0000000000
     15199       135  DOPC      H12R            5.0633326026       28.4136053940       -5.4174714312  MEMB      107             0.0000000000
     15200       135  DOPC      H12S            6.1178897338       29.7888044846       -5.1489923592  MEMB      107             0.0000000000
     15201       135  DOPC      C213            7.2962831988       28.0089735977       -5.6260279226  MEMB      107             0.0000000000
     15202       135  DOPC      H13R            8.1022908852       28.6099571788       -6.0987769862  MEMB      107             0.0000000000
     15203       135  DOPC      H13S            7.1133383541       27.1098012304       -6.2523995049  MEMB      107             0.0000000000
     15204       135  DOPC      C214            7.7651702835       27.6829138624       -4.2174485162  MEMB      107             0.0000000000
     15205       135  DOPC      H14R            8.0271871178       28.6211997389       -3.6833250650  MEMB      107             0.0000000000
     15206       135  DOPC      H14S            8.7236420385       27.1245055761       -4.2793610107  MEMB      107             0.0000000000
     15207       135  DOPC      C215            6.8221499366       26.8242780056       -3.2935926948  MEMB      107             0.0000000000
     15208       135  DOPC      H15R            6.7116363241       25.8833738457       -3.8739433363  MEMB      107             0.0000000000
     15209       135  DOPC      H15S            5.8576032035       27.3745339774       -3.3280751165  MEMB      107             0.0000000000
     15210       135  DOPC      C216            7.3401249368       26.6366855056       -1.8436649331  MEMB      107             0.0000000000
     15211       135  DOPC      H16R            7.2484824860       27.6008543189       -1.2993290436  MEMB      107             0.0000000000
     15212       135  DOPC      H16S            8.4355917212       26.4518429535       -1.8540028659  MEMB      107             0.0000000000
     15213       135  DOPC      C217            6.6816540241       25.5496187476       -0.9879310573  MEMB      107             0.0000000000
     15214       135  DOPC      H17R            6.8617682681       25.7154804520        0.0957516101  MEMB      107             0.0000000000
     15215       135  DOPC      H17S            7.0784910728       24.5397974685       -1.2268927870  MEMB      107             0.0000000000
     15216       135  DOPC      C218            5.1494945295       25.5355328103       -1.1592199199  MEMB      107             0.0000000000
     15217       135  DOPC      H18R            4.6730182305       24.8381822878       -0.4374204441  MEMB      107             0.0000000000
     15218       135  DOPC      H18S            4.8598959305       25.4095874942       -2.2243919026  MEMB      107             0.0000000000
     15219       135  DOPC      H18T            4.7932362445       26.5740529514       -0.9892886562  MEMB      107             0.0000000000
     15220       135  DOPC      C33             6.9744005711       28.7294680037      -12.4288106261  MEMB      107             0.0000000000
     15221       135  DOPC      H3X             6.2940041164       29.5674799924      -12.6917128229  MEMB      107             0.0000000000
     15222       135  DOPC      H3Y             7.5729621996       28.5008808766      -13.3364413272  MEMB      107             0.0000000000
     15223       135  DOPC      C34             7.8355456827       29.3088474480      -11.2345798697  MEMB      107             0.0000000000
     15224       135  DOPC      H4X             7.9235803261       28.4976134553      -10.4806099844  MEMB      107             0.0000000000
     15225       135  DOPC      H4Y             7.2334083702       30.1800755664      -10.8988521207  MEMB      107             0.0000000000
     15226       135  DOPC      C35             9.3043161424       29.8154100953      -11.4591862103  MEMB      107             0.0000000000
     15227       135  DOPC      H5X             9.4045684087       30.4896743288      -12.3364768173  MEMB      107             0.0000000000
     15228       135  DOPC      H5Y             9.9206195173       28.9361857440      -11.7445906514  MEMB      107             0.0000000000
     15229       135  DOPC      C36            10.0512793891       30.4474212681      -10.2387035844  MEMB      107             0.0000000000
     15230       135  DOPC      H6X            11.0428375192       30.8168825680      -10.5772771936  MEMB      107             0.0000000000
     15231       135  DOPC      H6Y             9.5578948088       31.4254375566      -10.0532948246  MEMB      107             0.0000000000
     15232       135  DOPC      C37            10.0820988777       29.4709641500       -9.0472199648  MEMB      107             0.0000000000
     15233       135  DOPC      H7X             9.0684178849       29.1186486033       -8.7597387177  MEMB      107             0.0000000000
     15234       135  DOPC      H7Y            10.6004041836       28.6181626876       -9.5354925310  MEMB      107             0.0000000000
     15235       135  DOPC      C38            10.9289755271       29.9114998906       -7.7753025486  MEMB      107             0.0000000000
     15236       135  DOPC      H8X            12.0325982821       30.0206992586       -7.8417363724  MEMB      107             0.0000000000
     15237       135  DOPC      H8Y            10.8322121633       29.0074637593       -7.1368072954  MEMB      107             0.0000000000
     15238       135  DOPC      C39            10.3491511065       31.1757443723       -7.1553404013  MEMB      107             0.0000000000
     15239       135  DOPC      H9X            10.0420064321       31.9329659227       -7.8917360755  MEMB      107             0.0000000000
     15240       135  DOPC      C310           10.2266229816       31.4538776498       -5.9073897529  MEMB      107             0.0000000000
     15241       135  DOPC      H10X            9.7671850838       32.3837844778       -5.5410697226  MEMB      107             0.0000000000
     15242       135  DOPC      C311           10.6096042517       30.5365296925       -4.7711160100  MEMB      107             0.0000000000
     15243       135  DOPC      H11X           11.6391255590       30.1282032508       -4.8587298159  MEMB      107             0.0000000000
     15244       135  DOPC      H11Y           10.0672175400       29.5712088079       -4.8621835421  MEMB      107             0.0000000000
     15245       135  DOPC      C312           10.6807714788       31.1078881065       -3.4067092699  MEMB      107             0.0000000000
     15246       135  DOPC      H12X           11.3795177441       31.9683686301       -3.3315610190  MEMB      107             0.0000000000
     15247       135  DOPC      H12Y           11.0759899645       30.3242803608       -2.7254743969  MEMB      107             0.0000000000
     15248       135  DOPC      C313            9.2999478535       31.3849064332       -2.7215835538  MEMB      107             0.0000000000
     15249       135  DOPC      H13X            9.0664021447       32.3562480072       -3.2076614160  MEMB      107             0.0000000000
     15250       135  DOPC      H13Y            8.6691074253       30.5495735178       -3.0938474881  MEMB      107             0.0000000000
     15251       135  DOPC      C314            9.4257866738       31.2564875432       -1.1800359239  MEMB      107             0.0000000000
     15252       135  DOPC      H14X            9.4199256688       30.1606935124       -0.9969444005  MEMB      107             0.0000000000
     15253       135  DOPC      H14Y           10.4106667473       31.7109181170       -0.9395662623  MEMB      107             0.0000000000
     15254       135  DOPC      C315            8.3008325126       32.0436946996       -0.4573283331  MEMB      107             0.0000000000
     15255       135  DOPC      H15X            8.0155919017       32.9526071280       -1.0290245858  MEMB      107             0.0000000000
     15256       135  DOPC      H15Y            8.6654373504       32.2914740741        0.5624702738  MEMB      107             0.0000000000
     15257       135  DOPC      C316            7.0416798180       31.1626724760       -0.1657698119  MEMB      107             0.0000000000
     15258       135  DOPC      H16X            7.3866266825       30.3745558477        0.5372258659  MEMB      107             0.0000000000
     15259       135  DOPC      H16Y            6.2387926357       31.7846752745        0.2845701785  MEMB      107             0.0000000000
     15260       135  DOPC      C317            6.3313059689       30.4531330847       -1.3243449355  MEMB      107             0.0000000000
     15261       135  DOPC      H17X            6.2060169003       31.2111037437       -2.1269053926  MEMB      107             0.0000000000
     15262       135  DOPC      H17Y            6.8468890599       29.6472275066       -1.8891551941  MEMB      107             0.0000000000
     15263       135  DOPC      C318            4.9904582007       29.7690279610       -0.9475717881  MEMB      107             0.0000000000
     15264       135  DOPC      H18X            4.5899095259       29.3245340460       -1.8836830798  MEMB      107             0.0000000000
     15265       135  DOPC      H18Y            5.1435720750       29.0052611280       -0.1553977749  MEMB      107             0.0000000000
     15266       135  DOPC      H18Z            4.2620947610       30.5728568233       -0.7074322908  MEMB      107             0.0000000000
     15267       136  DOPC      N             -26.8483728814      -16.9365227753      -18.9269163705  MEMB      108             0.0000000000
     15268       136  DOPC      C12           -28.3948849545      -17.2982872820      -18.8510651706  MEMB      108             0.0000000000
     15269       136  DOPC      H12A          -28.8148246355      -16.7489296973      -19.6806777724  MEMB      108             0.0000000000
     15270       136  DOPC      H12B          -28.7636767990      -17.0052618121      -17.8791965737  MEMB      108             0.0000000000
     15271       136  DOPC      C13           -26.4000529698      -17.2730067793      -20.3784803966  MEMB      108             0.0000000000
     15272       136  DOPC      H13A          -27.1217852324      -16.8578956692      -21.0663650387  MEMB      108             0.0000000000
     15273       136  DOPC      H13B          -25.3486902300      -17.1276704281      -20.5782648170  MEMB      108             0.0000000000
     15274       136  DOPC      H13C          -26.5886002794      -18.3299373805      -20.4957301030  MEMB      108             0.0000000000
     15275       136  DOPC      C14           -26.0282838193      -17.8756412241      -18.0744271602  MEMB      108             0.0000000000
     15276       136  DOPC      H14A          -26.3254821713      -18.8494755660      -18.4345936781  MEMB      108             0.0000000000
     15277       136  DOPC      H14B          -24.9607282407      -17.7744774098      -18.2028437683  MEMB      108             0.0000000000
     15278       136  DOPC      H14C          -26.3715274363      -17.8295553178      -17.0514608919  MEMB      108             0.0000000000
     15279       136  DOPC      C15           -26.6269304794      -15.4858442532      -18.5838880610  MEMB      108             0.0000000000
     15280       136  DOPC      H15A          -26.9103909247      -15.4169810579      -17.5440284866  MEMB      108             0.0000000000
     15281       136  DOPC      H15B          -27.2275040111      -14.7952330770      -19.1572707472  MEMB      108             0.0000000000
     15282       136  DOPC      H15C          -25.6363022140      -15.2429359285      -18.9389248695  MEMB      108             0.0000000000
     15283       136  DOPC      C11           -28.9153282765      -18.6900127308      -19.1937282883  MEMB      108             0.0000000000
     15284       136  DOPC      H11A          -30.0064062108      -18.7280091093      -18.9877523573  MEMB      108             0.0000000000
     15285       136  DOPC      H11B          -28.7458918517      -18.8031725141      -20.2858854340  MEMB      108             0.0000000000
     15286       136  DOPC      P             -27.9362386195      -21.0726359528      -19.0844975098  MEMB      108             0.0000000000
     15287       136  DOPC      O13           -26.6981425631      -21.0378133718      -19.8166450886  MEMB      108             0.0000000000
     15288       136  DOPC      O14           -29.1288756695      -21.4490469914      -19.8685225414  MEMB      108             0.0000000000
     15289       136  DOPC      O12           -28.1629897579      -19.6720377621      -18.4591404552  MEMB      108             0.0000000000
     15290       136  DOPC      O11           -27.8706674120      -21.9947289813      -17.7626889554  MEMB      108             0.0000000000
     15291       136  DOPC      C1            -26.7240678078      -21.9168478727      -16.9207008715  MEMB      108             0.0000000000
     15292       136  DOPC      HA            -26.5832600252      -20.8871747193      -16.5279318674  MEMB      108             0.0000000000
     15293       136  DOPC      HB            -25.8030449213      -22.3608467959      -17.3553302154  MEMB      108             0.0000000000
     15294       136  DOPC      C2            -26.9354579761      -22.8711169009      -15.7244080616  MEMB      108             0.0000000000
     15295       136  DOPC      HS            -26.9362204014      -23.8917489987      -16.1633051710  MEMB      108             0.0000000000
     15296       136  DOPC      O21           -28.1182945101      -22.4878799904      -15.0550461649  MEMB      108             0.0000000000
     15297       136  DOPC      C21           -28.7673866931      -23.4301675450      -14.3908044929  MEMB      108             0.0000000000
     15298       136  DOPC      O22           -28.5141549495      -24.5875846649      -14.3151346205  MEMB      108             0.0000000000
     15299       136  DOPC      C22           -29.9462361710      -22.7874454649      -13.6589597308  MEMB      108             0.0000000000
     15300       136  DOPC      H2R           -30.8140536385      -23.0147364466      -14.3143623624  MEMB      108             0.0000000000
     15301       136  DOPC      H2S           -29.7430796912      -21.7020230090      -13.5368684399  MEMB      108             0.0000000000
     15302       136  DOPC      C3            -25.7261385543      -22.8451804705      -14.7195554184  MEMB      108             0.0000000000
     15303       136  DOPC      HX            -24.8836701416      -23.1994673398      -15.3512582633  MEMB      108             0.0000000000
     15304       136  DOPC      HY            -25.9961464945      -23.6430853198      -13.9951487931  MEMB      108             0.0000000000
     15305       136  DOPC      O31           -25.5243626518      -21.5592704063      -14.0837899555  MEMB      108             0.0000000000
     15306       136  DOPC      C31           -24.3035366246      -21.1729633487      -14.0001951513  MEMB      108             0.0000000000
     15307       136  DOPC      O32           -23.2802975821      -21.8192713653      -14.1443654244  MEMB      108             0.0000000000
     15308       136  DOPC      C32           -24.3758943183      -19.6855989436      -13.6205867669  MEMB      108             0.0000000000
     15309       136  DOPC      H2X           -24.6619500863      -19.5151875313      -12.5606560401  MEMB      108             0.0000000000
     15310       136  DOPC      H2Y           -23.4178121361      -19.1281383364      -13.6956714885  MEMB      108             0.0000000000
     15311       136  DOPC      C23           -30.1486147699      -23.3571236266      -12.2189891679  MEMB      108             0.0000000000
     15312       136  DOPC      H3R           -30.0466308011      -24.4631190901      -12.1926477944  MEMB      108             0.0000000000
     15313       136  DOPC      H3S           -31.1691277938      -23.0706409045      -11.8861202935  MEMB      108             0.0000000000
     15314       136  DOPC      C24           -29.1239172097      -22.7677599361      -11.2147567430  MEMB      108             0.0000000000
     15315       136  DOPC      H4R           -29.0398476189      -21.6734299892      -11.3870803978  MEMB      108             0.0000000000
     15316       136  DOPC      H4S           -28.1285657921      -23.2352558449      -11.3730104436  MEMB      108             0.0000000000
     15317       136  DOPC      C25           -29.4807279777      -22.7762403430       -9.6956051328  MEMB      108             0.0000000000
     15318       136  DOPC      H5R           -29.3649397452      -23.8352326763       -9.3802494947  MEMB      108             0.0000000000
     15319       136  DOPC      H5S           -30.5835940639      -22.6433621782       -9.7143329108  MEMB      108             0.0000000000
     15320       136  DOPC      C26           -28.7659619809      -21.7879490020       -8.7804216721  MEMB      108             0.0000000000
     15321       136  DOPC      H6R           -29.3962978770      -21.5991067815       -7.8852475901  MEMB      108             0.0000000000
     15322       136  DOPC      H6S           -28.8245228353      -20.8262471654       -9.3336133055  MEMB      108             0.0000000000
     15323       136  DOPC      C27           -27.2180080737      -22.0399699243       -8.4554740621  MEMB      108             0.0000000000
     15324       136  DOPC      H7R           -27.1109896616      -21.1816184751       -7.7582648062  MEMB      108             0.0000000000
     15325       136  DOPC      H7S           -26.6766373416      -21.8906437923       -9.4140878454  MEMB      108             0.0000000000
     15326       136  DOPC      C28           -26.7280797792      -23.3993027723       -7.8437459653  MEMB      108             0.0000000000
     15327       136  DOPC      H8R           -27.0746182254      -24.3192015172       -8.3614508518  MEMB      108             0.0000000000
     15328       136  DOPC      H8S           -27.3151180874      -23.4102101896       -6.9005659390  MEMB      108             0.0000000000
     15329       136  DOPC      C29           -25.2820873507      -23.3603744772       -7.6258759660  MEMB      108             0.0000000000
     15330       136  DOPC      H9R           -24.7864712591      -24.0314986088       -8.3427848201  MEMB      108             0.0000000000
     15331       136  DOPC      C210          -24.6164763854      -22.7449477228       -6.6554245310  MEMB      108             0.0000000000
     15332       136  DOPC      H10R          -23.5203422099      -22.8353262268       -6.6733567639  MEMB      108             0.0000000000
     15333       136  DOPC      C211          -25.2263872648      -21.9404563002       -5.5233714799  MEMB      108             0.0000000000
     15334       136  DOPC      H11R          -25.4177844837      -22.5891543676       -4.6419648343  MEMB      108             0.0000000000
     15335       136  DOPC      H11S          -26.2723545331      -21.5843003013       -5.6392446983  MEMB      108             0.0000000000
     15336       136  DOPC      C212          -24.2919904711      -20.7696278377       -5.0965601952  MEMB      108             0.0000000000
     15337       136  DOPC      H12R          -24.8728482066      -20.0865372460       -4.4405780782  MEMB      108             0.0000000000
     15338       136  DOPC      H12S          -24.2247621870      -20.1051438449       -5.9844019890  MEMB      108             0.0000000000
     15339       136  DOPC      C213          -22.9295883015      -21.1843990023       -4.5383900806  MEMB      108             0.0000000000
     15340       136  DOPC      H13R          -22.3345660990      -20.3436890793       -4.1218852243  MEMB      108             0.0000000000
     15341       136  DOPC      H13S          -22.3732139120      -21.8012776407       -5.2761088052  MEMB      108             0.0000000000
     15342       136  DOPC      C214          -23.0994130952      -22.2150665285       -3.2469721897  MEMB      108             0.0000000000
     15343       136  DOPC      H14R          -22.0558698431      -22.4307384567       -2.9326102046  MEMB      108             0.0000000000
     15344       136  DOPC      H14S          -23.5601613804      -23.1650393899       -3.5927806006  MEMB      108             0.0000000000
     15345       136  DOPC      C215          -23.6331237039      -21.5613254940       -1.9990739681  MEMB      108             0.0000000000
     15346       136  DOPC      H15R          -24.4366839440      -20.8963371900       -2.3816997362  MEMB      108             0.0000000000
     15347       136  DOPC      H15S          -22.9555172696      -20.8197891210       -1.5244213771  MEMB      108             0.0000000000
     15348       136  DOPC      C216          -24.0578810500      -22.5515365268       -0.8861829722  MEMB      108             0.0000000000
     15349       136  DOPC      H16R          -23.1021062333      -22.9469351731       -0.4806269419  MEMB      108             0.0000000000
     15350       136  DOPC      H16S          -24.6687836752      -23.4024586970       -1.2563852109  MEMB      108             0.0000000000
     15351       136  DOPC      C217          -24.6698041576      -21.7693236767        0.2952995736  MEMB      108             0.0000000000
     15352       136  DOPC      H17R          -25.4390941064      -21.1399391825       -0.2010751192  MEMB      108             0.0000000000
     15353       136  DOPC      H17S          -23.9230589969      -21.1113893719        0.7890770198  MEMB      108             0.0000000000
     15354       136  DOPC      C218          -25.3166157049      -22.6759029487        1.3482911787  MEMB      108             0.0000000000
     15355       136  DOPC      H18R          -24.5180404263      -23.2943148358        1.8110709047  MEMB      108             0.0000000000
     15356       136  DOPC      H18S          -26.0334595034      -23.4232328084        0.9458563054  MEMB      108             0.0000000000
     15357       136  DOPC      H18T          -25.7454990382      -21.9564870766        2.0782370094  MEMB      108             0.0000000000
     15358       136  DOPC      C33           -25.1883715520      -18.7507900023      -14.5925895985  MEMB      108             0.0000000000
     15359       136  DOPC      H3X           -26.2605488062      -18.9509365413      -14.3811701884  MEMB      108             0.0000000000
     15360       136  DOPC      H3Y           -24.9656494851      -19.0354202769      -15.6431618567  MEMB      108             0.0000000000
     15361       136  DOPC      C34           -24.8500457931      -17.2406795649      -14.4542667372  MEMB      108             0.0000000000
     15362       136  DOPC      H4X           -25.5299062760      -16.9029025542      -15.2654494445  MEMB      108             0.0000000000
     15363       136  DOPC      H4Y           -23.7504892021      -17.1198012714      -14.5576360854  MEMB      108             0.0000000000
     15364       136  DOPC      C35           -25.2700918573      -16.5333851070      -13.1480386894  MEMB      108             0.0000000000
     15365       136  DOPC      H5X           -24.9383654245      -15.4739858254      -13.1038617593  MEMB      108             0.0000000000
     15366       136  DOPC      H5Y           -24.8508361288      -17.0186415842      -12.2408058111  MEMB      108             0.0000000000
     15367       136  DOPC      C36           -26.7684532553      -16.5417393559      -12.8150982247  MEMB      108             0.0000000000
     15368       136  DOPC      H6X           -27.2512739919      -15.8961608831      -13.5795811210  MEMB      108             0.0000000000
     15369       136  DOPC      H6Y           -27.0585378171      -17.5904380450      -13.0396047381  MEMB      108             0.0000000000
     15370       136  DOPC      C37           -27.0872608794      -16.1902017187      -11.3300331008  MEMB      108             0.0000000000
     15371       136  DOPC      H7X           -26.3589038942      -15.3856022027      -11.0924691047  MEMB      108             0.0000000000
     15372       136  DOPC      H7Y           -28.0092501330      -15.5784756975      -11.2297919326  MEMB      108             0.0000000000
     15373       136  DOPC      C38           -26.9593525774      -17.4109290953      -10.3576449679  MEMB      108             0.0000000000
     15374       136  DOPC      H8X           -26.2394299279      -17.3268897257       -9.5156407459  MEMB      108             0.0000000000
     15375       136  DOPC      H8Y           -26.5227557059      -18.2304109606      -10.9676882791  MEMB      108             0.0000000000
     15376       136  DOPC      C39           -28.3798412919      -17.7860269821       -9.8617703871  MEMB      108             0.0000000000
     15377       136  DOPC      H9X           -28.9097744963      -18.5553705177      -10.4425304400  MEMB      108             0.0000000000
     15378       136  DOPC      C310          -29.0872792278      -17.2326901468       -8.8903220744  MEMB      108             0.0000000000
     15379       136  DOPC      H10X          -30.1155398824      -17.4702317233       -8.5800731189  MEMB      108             0.0000000000
     15380       136  DOPC      C311          -28.6174703701      -16.0558615149       -8.0088654389  MEMB      108             0.0000000000
     15381       136  DOPC      H11X          -29.3492032818      -15.2286223763       -8.1295433290  MEMB      108             0.0000000000
     15382       136  DOPC      H11Y          -27.6524398924      -15.6079704541       -8.3289125950  MEMB      108             0.0000000000
     15383       136  DOPC      C312          -28.5212366715      -16.3498375155       -6.4971476733  MEMB      108             0.0000000000
     15384       136  DOPC      H12X          -29.4930380047      -16.8643336919       -6.3383499392  MEMB      108             0.0000000000
     15385       136  DOPC      H12Y          -28.5280049532      -15.4096007645       -5.9053457236  MEMB      108             0.0000000000
     15386       136  DOPC      C313          -27.2854550422      -17.1223122091       -6.0266858516  MEMB      108             0.0000000000
     15387       136  DOPC      H13X          -27.3752668813      -18.2120606054       -6.2234171311  MEMB      108             0.0000000000
     15388       136  DOPC      H13Y          -26.3402149124      -16.6988239907       -6.4285566099  MEMB      108             0.0000000000
     15389       136  DOPC      C314          -27.0707718602      -17.0394446790       -4.4622014181  MEMB      108             0.0000000000
     15390       136  DOPC      H14X          -26.0183750805      -17.2692047037       -4.1901855470  MEMB      108             0.0000000000
     15391       136  DOPC      H14Y          -27.2874100846      -16.0491647921       -4.0075203291  MEMB      108             0.0000000000
     15392       136  DOPC      C315          -27.9794175417      -18.0957438177       -3.8089991056  MEMB      108             0.0000000000
     15393       136  DOPC      H15X          -27.7025636612      -19.0782717020       -4.2475329758  MEMB      108             0.0000000000
     15394       136  DOPC      H15Y          -29.0547117034      -17.8703525989       -3.9741120921  MEMB      108             0.0000000000
     15395       136  DOPC      C316          -27.7252500842      -18.2032781376       -2.2777345525  MEMB      108             0.0000000000
     15396       136  DOPC      H16X          -26.6335011552      -18.1134305046       -2.0924431798  MEMB      108             0.0000000000
     15397       136  DOPC      H16Y          -28.1601595805      -17.2537959115       -1.8987102334  MEMB      108             0.0000000000
     15398       136  DOPC      C317          -28.3230859692      -19.3749185262       -1.5799941133  MEMB      108             0.0000000000
     15399       136  DOPC      H17X          -29.4028642680      -19.5231037642       -1.7954967992  MEMB      108             0.0000000000
     15400       136  DOPC      H17Y          -27.9251623346      -20.3733012103       -1.8614372035  MEMB      108             0.0000000000
     15401       136  DOPC      C318          -28.2233147520      -19.1198762873       -0.0685943678  MEMB      108             0.0000000000
     15402       136  DOPC      H18X          -27.2339868625      -18.6458029073        0.1069213300  MEMB      108             0.0000000000
     15403       136  DOPC      H18Y          -28.8667745280      -18.2616395865        0.2207329197  MEMB      108             0.0000000000
     15404       136  DOPC      H18Z          -28.5643497361      -19.9220910906        0.6202207561  MEMB      108             0.0000000000
     15405       137  DOPC      N              22.0198636670      -27.4712488610      -20.1011743909  MEMB      109             0.0000000000
     15406       137  DOPC      C12            20.6652686596      -28.0022035409      -20.4360799901  MEMB      109             0.0000000000
     15407       137  DOPC      H12A           20.4526070012      -28.9123446256      -19.8949532380  MEMB      109             0.0000000000
     15408       137  DOPC      H12B           20.5751847124      -28.1537693380      -21.5015904778  MEMB      109             0.0000000000
     15409       137  DOPC      C13            22.2481534374      -26.0752294894      -20.7185260657  MEMB      109             0.0000000000
     15410       137  DOPC      H13A           21.9216168083      -26.0962781691      -21.7477640350  MEMB      109             0.0000000000
     15411       137  DOPC      H13B           21.7896678632      -25.3360110304      -20.0784111526  MEMB      109             0.0000000000
     15412       137  DOPC      H13C           23.2947113514      -25.8203581656      -20.6400578890  MEMB      109             0.0000000000
     15413       137  DOPC      C14            22.9788014373      -28.4726007790      -20.6056731066  MEMB      109             0.0000000000
     15414       137  DOPC      H14A           22.6440575495      -28.7399061344      -21.5970833621  MEMB      109             0.0000000000
     15415       137  DOPC      H14B           23.9897665829      -28.0926677924      -20.6057459368  MEMB      109             0.0000000000
     15416       137  DOPC      H14C           22.9605914633      -29.4148350916      -20.0781669820  MEMB      109             0.0000000000
     15417       137  DOPC      C15            22.2734283655      -27.3368838941      -18.6359229675  MEMB      109             0.0000000000
     15418       137  DOPC      H15A           21.9659877823      -28.2629634423      -18.1730439715  MEMB      109             0.0000000000
     15419       137  DOPC      H15B           21.6114889665      -26.5500082190      -18.3056762314  MEMB      109             0.0000000000
     15420       137  DOPC      H15C           23.2897159577      -27.0359359029      -18.4285834099  MEMB      109             0.0000000000
     15421       137  DOPC      C11            19.4864904226      -26.9716218703      -20.1473641951  MEMB      109             0.0000000000
     15422       137  DOPC      H11A           19.5831390887      -26.0516815286      -20.7627420412  MEMB      109             0.0000000000
     15423       137  DOPC      H11B           18.5897144610      -27.5707746454      -20.4140660707  MEMB      109             0.0000000000
     15424       137  DOPC      P              18.7373997475      -27.5239801298      -17.7098619089  MEMB      109             0.0000000000
     15425       137  DOPC      O13            19.3144042987      -28.8048039365      -17.8599427406  MEMB      109             0.0000000000
     15426       137  DOPC      O14            17.2484995883      -27.3270060140      -17.6297255360  MEMB      109             0.0000000000
     15427       137  DOPC      O12            19.4435239005      -26.5419170312      -18.7741632675  MEMB      109             0.0000000000
     15428       137  DOPC      O11            19.3404651817      -26.8917302534      -16.3815658302  MEMB      109             0.0000000000
     15429       137  DOPC      C1             19.2962043449      -25.4613960033      -16.2784613025  MEMB      109             0.0000000000
     15430       137  DOPC      HA             18.2405333354      -25.1497245245      -16.1276612930  MEMB      109             0.0000000000
     15431       137  DOPC      HB             19.6819606917      -24.9731248904      -17.1988440458  MEMB      109             0.0000000000
     15432       137  DOPC      C2             20.1718937044      -25.0477203849      -15.0953665596  MEMB      109             0.0000000000
     15433       137  DOPC      HS             20.5462420815      -24.0376616030      -15.3673330290  MEMB      109             0.0000000000
     15434       137  DOPC      O21            21.2824448164      -26.0537790432      -14.9377643850  MEMB      109             0.0000000000
     15435       137  DOPC      C21            22.3355078314      -25.5003846207      -14.3400997587  MEMB      109             0.0000000000
     15436       137  DOPC      O22            22.4372204660      -24.3593153522      -13.9438285314  MEMB      109             0.0000000000
     15437       137  DOPC      C22            23.5269648150      -26.4955028908      -14.4999201444  MEMB      109             0.0000000000
     15438       137  DOPC      H2R            23.5985955129      -26.7356221831      -15.5822936120  MEMB      109             0.0000000000
     15439       137  DOPC      H2S            23.1698418203      -27.3590675038      -13.8990538913  MEMB      109             0.0000000000
     15440       137  DOPC      C3             19.3708011115      -24.9822093003      -13.7424382923  MEMB      109             0.0000000000
     15441       137  DOPC      HX             18.7307432964      -24.0858897598      -13.8882404332  MEMB      109             0.0000000000
     15442       137  DOPC      HY             19.9569707048      -24.6779946295      -12.8490289627  MEMB      109             0.0000000000
     15443       137  DOPC      O31            18.7126420828      -26.2629458112      -13.5633144662  MEMB      109             0.0000000000
     15444       137  DOPC      C31            18.0244279344      -26.4261255633      -12.4894410934  MEMB      109             0.0000000000
     15445       137  DOPC      O32            17.6204922349      -25.5232332229      -11.7425075658  MEMB      109             0.0000000000
     15446       137  DOPC      C32            17.5463576449      -27.8583002965      -12.2756870557  MEMB      109             0.0000000000
     15447       137  DOPC      H2X            16.5881664095      -28.0535586565      -12.8030056913  MEMB      109             0.0000000000
     15448       137  DOPC      H2Y            18.4060230144      -28.5286341902      -12.4900441523  MEMB      109             0.0000000000
     15449       137  DOPC      C23            24.9100309438      -25.9818685728      -13.9123612805  MEMB      109             0.0000000000
     15450       137  DOPC      H3R            25.4968051006      -25.4163949804      -14.6675149425  MEMB      109             0.0000000000
     15451       137  DOPC      H3S            25.4615837771      -26.9322199417      -13.7482184122  MEMB      109             0.0000000000
     15452       137  DOPC      C24            24.8792474716      -25.3844400177      -12.4923633914  MEMB      109             0.0000000000
     15453       137  DOPC      H4R            24.8451183306      -24.2741663829      -12.4711793078  MEMB      109             0.0000000000
     15454       137  DOPC      H4S            25.8641862745      -25.5606422114      -12.0094874731  MEMB      109             0.0000000000
     15455       137  DOPC      C25            23.8751221255      -26.0825475018      -11.5228672697  MEMB      109             0.0000000000
     15456       137  DOPC      H5R            24.0694682407      -27.1635504526      -11.6901489194  MEMB      109             0.0000000000
     15457       137  DOPC      H5S            22.8420967472      -25.8564532323      -11.8635444861  MEMB      109             0.0000000000
     15458       137  DOPC      C26            24.1354708956      -25.7429254901      -10.0392094851  MEMB      109             0.0000000000
     15459       137  DOPC      H6R            23.9324428618      -24.6639866456       -9.8689390851  MEMB      109             0.0000000000
     15460       137  DOPC      H6S            25.1627931445      -25.9919114429       -9.6972494162  MEMB      109             0.0000000000
     15461       137  DOPC      C27            23.2318041297      -26.5972999433       -9.1821183152  MEMB      109             0.0000000000
     15462       137  DOPC      H7R            23.3404687594      -26.2106568758       -8.1462521093  MEMB      109             0.0000000000
     15463       137  DOPC      H7S            23.6257948418      -27.6358538372       -9.1597986834  MEMB      109             0.0000000000
     15464       137  DOPC      C28            21.7292745582      -26.6052651785       -9.5639035119  MEMB      109             0.0000000000
     15465       137  DOPC      H8R            21.3394387033      -27.2501218530       -8.7475041163  MEMB      109             0.0000000000
     15466       137  DOPC      H8S            21.5716589948      -27.1527768410      -10.5176911934  MEMB      109             0.0000000000
     15467       137  DOPC      C29            21.1851919308      -25.2707605516       -9.5720212106  MEMB      109             0.0000000000
     15468       137  DOPC      H9R            21.5400834288      -24.6807798199      -10.4299110715  MEMB      109             0.0000000000
     15469       137  DOPC      C210           20.5069657570      -24.5659999850       -8.6795710960  MEMB      109             0.0000000000
     15470       137  DOPC      H10R           20.4690575074      -23.4727172432       -8.7948778105  MEMB      109             0.0000000000
     15471       137  DOPC      C211           20.0131586698      -25.0287806415       -7.2866040522  MEMB      109             0.0000000000
     15472       137  DOPC      H11R           20.2859785574      -24.4908334966       -6.3535962368  MEMB      109             0.0000000000
     15473       137  DOPC      H11S           20.3351380203      -26.0816886447       -7.1381626818  MEMB      109             0.0000000000
     15474       137  DOPC      C212           18.4935492358      -25.0956041621       -7.3550013346  MEMB      109             0.0000000000
     15475       137  DOPC      H12R           18.2589733518      -25.8172589079       -8.1664877656  MEMB      109             0.0000000000
     15476       137  DOPC      H12S           17.9805045961      -24.1468263047       -7.6213220475  MEMB      109             0.0000000000
     15477       137  DOPC      C213           17.8224388768      -25.5877900737       -6.0532916388  MEMB      109             0.0000000000
     15478       137  DOPC      H13R           16.8108259500      -25.8732044243       -6.4131508337  MEMB      109             0.0000000000
     15479       137  DOPC      H13S           17.8528217792      -24.7664260580       -5.3057896585  MEMB      109             0.0000000000
     15480       137  DOPC      C214           18.4858104870      -26.8331165239       -5.4393966971  MEMB      109             0.0000000000
     15481       137  DOPC      H14R           19.5284630964      -26.6963114827       -5.0809542940  MEMB      109             0.0000000000
     15482       137  DOPC      H14S           18.5262706003      -27.5670692064       -6.2724619164  MEMB      109             0.0000000000
     15483       137  DOPC      C215           17.7263129298      -27.4423194082       -4.3398550776  MEMB      109             0.0000000000
     15484       137  DOPC      H15R           17.9620398767      -26.9234331829       -3.3861725242  MEMB      109             0.0000000000
     15485       137  DOPC      H15S           18.1435075959      -28.4672718914       -4.2411547378  MEMB      109             0.0000000000
     15486       137  DOPC      C216           16.2192771894      -27.4506164284       -4.4421150462  MEMB      109             0.0000000000
     15487       137  DOPC      H16R           15.8943971011      -27.7883577267       -5.4494405526  MEMB      109             0.0000000000
     15488       137  DOPC      H16S           15.9741172806      -26.3816473606       -4.2645688827  MEMB      109             0.0000000000
     15489       137  DOPC      C217           15.5720138306      -28.3695107335       -3.4176939591  MEMB      109             0.0000000000
     15490       137  DOPC      H17R           15.9382827570      -29.3976652347       -3.6252183509  MEMB      109             0.0000000000
     15491       137  DOPC      H17S           14.4816393583      -28.3770148207       -3.6306444976  MEMB      109             0.0000000000
     15492       137  DOPC      C218           15.6212636795      -28.0176699765       -1.8903911338  MEMB      109             0.0000000000
     15493       137  DOPC      H18R           16.6953304927      -28.1495956818       -1.6388027374  MEMB      109             0.0000000000
     15494       137  DOPC      H18S           14.8222530786      -28.5311887255       -1.3140228757  MEMB      109             0.0000000000
     15495       137  DOPC      H18T           15.4918203210      -26.9370570937       -1.6671412655  MEMB      109             0.0000000000
     15496       137  DOPC      C33            17.3038797969      -28.0016157416      -10.7260777694  MEMB      109             0.0000000000
     15497       137  DOPC      H3X            16.4084609846      -27.4463748830      -10.3735809209  MEMB      109             0.0000000000
     15498       137  DOPC      H3Y            18.1927058636      -27.5775691619      -10.2117882024  MEMB      109             0.0000000000
     15499       137  DOPC      C34            17.2769251513      -29.4190712428      -10.2147353844  MEMB      109             0.0000000000
     15500       137  DOPC      H4X            18.2557898121      -29.9027425968      -10.4201792209  MEMB      109             0.0000000000
     15501       137  DOPC      H4Y            16.4022417546      -29.9537607418      -10.6429382527  MEMB      109             0.0000000000
     15502       137  DOPC      C35            17.2075752619      -29.3974243125       -8.6815470314  MEMB      109             0.0000000000
     15503       137  DOPC      H5X            16.1577521705      -29.1697238707       -8.3980947179  MEMB      109             0.0000000000
     15504       137  DOPC      H5Y            17.7403764808      -28.5497048443       -8.2000745884  MEMB      109             0.0000000000
     15505       137  DOPC      C36            17.6018205215      -30.7514336644       -8.0933664395  MEMB      109             0.0000000000
     15506       137  DOPC      H6X            16.7915263523      -31.2847188644       -7.5517474496  MEMB      109             0.0000000000
     15507       137  DOPC      H6Y            17.9653978603      -31.5181542437       -8.8104938272  MEMB      109             0.0000000000
     15508       137  DOPC      C37            18.7616090673      -30.5801915741       -7.0934355971  MEMB      109             0.0000000000
     15509       137  DOPC      H7X            19.5998405680      -29.9519313939       -7.4635412011  MEMB      109             0.0000000000
     15510       137  DOPC      H7Y            18.3643071315      -30.0482980184       -6.2026147006  MEMB      109             0.0000000000
     15511       137  DOPC      C38            19.4701079488      -31.9336452909       -6.6774215470  MEMB      109             0.0000000000
     15512       137  DOPC      H8X            20.3319001700      -31.5931665920       -6.0644703656  MEMB      109             0.0000000000
     15513       137  DOPC      H8Y            19.8348244256      -32.3886620682       -7.6230757418  MEMB      109             0.0000000000
     15514       137  DOPC      C39            18.6974213034      -32.9140796171       -5.8447828705  MEMB      109             0.0000000000
     15515       137  DOPC      H9X            18.2734300108      -33.7555912341       -6.4123122928  MEMB      109             0.0000000000
     15516       137  DOPC      C310           18.3736719079      -32.8599964705       -4.5444850148  MEMB      109             0.0000000000
     15517       137  DOPC      H10X           17.8459529846      -33.7398466464       -4.1477777688  MEMB      109             0.0000000000
     15518       137  DOPC      C311           18.6605024608      -31.8213534473       -3.4821426973  MEMB      109             0.0000000000
     15519       137  DOPC      H11X           17.8487384003      -31.7015200417       -2.7331431672  MEMB      109             0.0000000000
     15520       137  DOPC      H11Y           18.6867161730      -30.8178710254       -3.9582285426  MEMB      109             0.0000000000
     15521       137  DOPC      C312           19.9458975862      -32.2291102338       -2.7921163635  MEMB      109             0.0000000000
     15522       137  DOPC      H12X           20.6789127916      -32.6379652840       -3.5200226951  MEMB      109             0.0000000000
     15523       137  DOPC      H12Y           19.7444052967      -33.0628554152       -2.0860061579  MEMB      109             0.0000000000
     15524       137  DOPC      C313           20.6108120207      -31.0897323874       -2.0504221110  MEMB      109             0.0000000000
     15525       137  DOPC      H13X           19.8509032019      -30.7402489272       -1.3191765922  MEMB      109             0.0000000000
     15526       137  DOPC      H13Y           21.5080666748      -31.3131275200       -1.4345091116  MEMB      109             0.0000000000
     15527       137  DOPC      C314           20.9655062421      -29.8684244857       -2.9729805902  MEMB      109             0.0000000000
     15528       137  DOPC      H14X           21.7148339194      -30.1996698874       -3.7233829974  MEMB      109             0.0000000000
     15529       137  DOPC      H14Y           20.0934550146      -29.5758702657       -3.5960848466  MEMB      109             0.0000000000
     15530       137  DOPC      C315           21.7137849859      -28.6707043792       -2.2940771010  MEMB      109             0.0000000000
     15531       137  DOPC      H15X           22.5089119892      -28.4158969158       -3.0269938812  MEMB      109             0.0000000000
     15532       137  DOPC      H15Y           22.1490429917      -29.0604185601       -1.3490932936  MEMB      109             0.0000000000
     15533       137  DOPC      C316           20.8275676273      -27.4853164457       -1.8509251398  MEMB      109             0.0000000000
     15534       137  DOPC      H16X           21.4867197672      -26.6411648998       -1.5555485050  MEMB      109             0.0000000000
     15535       137  DOPC      H16Y           20.4585255295      -27.0505503847       -2.8043966902  MEMB      109             0.0000000000
     15536       137  DOPC      C317           19.6942111407      -27.7005657142       -0.8265383857  MEMB      109             0.0000000000
     15537       137  DOPC      H17X           18.9295935272      -28.3868885086       -1.2491991569  MEMB      109             0.0000000000
     15538       137  DOPC      H17Y           20.1945926916      -28.1035555142        0.0798493685  MEMB      109             0.0000000000
     15539       137  DOPC      C318           18.9888498147      -26.3574031253       -0.5558471019  MEMB      109             0.0000000000
     15540       137  DOPC      H18X           18.6032045818      -25.8922821980       -1.4881889110  MEMB      109             0.0000000000
     15541       137  DOPC      H18Y           18.1472073533      -26.5167680276        0.1516564273  MEMB      109             0.0000000000
     15542       137  DOPC      H18Z           19.7545561571      -25.7302634359       -0.0511580248  MEMB      109             0.0000000000
     15543       138  DOPC      N              29.1421538312      -21.0646596327      -19.8849194388  MEMB      110             0.0000000000
     15544       138  DOPC      C12            27.7170209513      -20.3837369193      -19.9845424238  MEMB      110             0.0000000000
     15545       138  DOPC      H12A           27.0517277207      -20.9560677480      -20.6140044367  MEMB      110             0.0000000000
     15546       138  DOPC      H12B           27.8362642851      -19.4474030305      -20.5093850614  MEMB      110             0.0000000000
     15547       138  DOPC      C13            30.0479066806      -20.3108122889      -18.9513904265  MEMB      110             0.0000000000
     15548       138  DOPC      H13A           29.5846302621      -20.1737098345      -17.9854825888  MEMB      110             0.0000000000
     15549       138  DOPC      H13B           30.9202950643      -20.9360555846      -18.8313521884  MEMB      110             0.0000000000
     15550       138  DOPC      H13C           30.3225906599      -19.3440441376      -19.3467487563  MEMB      110             0.0000000000
     15551       138  DOPC      C14            29.7360150970      -21.0272674851      -21.2358723864  MEMB      110             0.0000000000
     15552       138  DOPC      H14A           30.7893234026      -21.2471340221      -21.1431340889  MEMB      110             0.0000000000
     15553       138  DOPC      H14B           29.2196927131      -21.6816798360      -21.9225712997  MEMB      110             0.0000000000
     15554       138  DOPC      H14C           29.5791304815      -20.0449620451      -21.6564235251  MEMB      110             0.0000000000
     15555       138  DOPC      C15            29.0261062534      -22.4719214530      -19.4341327238  MEMB      110             0.0000000000
     15556       138  DOPC      H15A           28.3241710922      -23.0278864249      -20.0379456983  MEMB      110             0.0000000000
     15557       138  DOPC      H15B           28.6276393695      -22.4653604811      -18.4303493281  MEMB      110             0.0000000000
     15558       138  DOPC      H15C           30.0079503788      -22.9193035511      -19.4813697851  MEMB      110             0.0000000000
     15559       138  DOPC      C11            27.0724203808      -20.1541469310      -18.5965049706  MEMB      110             0.0000000000
     15560       138  DOPC      H11A           27.7275528814      -19.4409281769      -18.0520409155  MEMB      110             0.0000000000
     15561       138  DOPC      H11B           26.1694079306      -19.5182757197      -18.7171582836  MEMB      110             0.0000000000
     15562       138  DOPC      P              25.6802766638      -22.2395527582      -18.2661614962  MEMB      110             0.0000000000
     15563       138  DOPC      O13            26.2573172266      -23.4520013798      -18.7856998999  MEMB      110             0.0000000000
     15564       138  DOPC      O14            24.8361319919      -21.5425481361      -19.2214887430  MEMB      110             0.0000000000
     15565       138  DOPC      O12            26.8921872738      -21.2747074966      -17.7731607297  MEMB      110             0.0000000000
     15566       138  DOPC      O11            24.9634445331      -22.5116774955      -16.8661267616  MEMB      110             0.0000000000
     15567       138  DOPC      C1             24.1087264194      -21.5485668316      -16.1724391269  MEMB      110             0.0000000000
     15568       138  DOPC      HA             23.1888327645      -22.1031806472      -15.8886781448  MEMB      110             0.0000000000
     15569       138  DOPC      HB             23.8807688537      -20.6529609501      -16.7890804849  MEMB      110             0.0000000000
     15570       138  DOPC      C2             24.7985073165      -21.1286181846      -14.8541279084  MEMB      110             0.0000000000
     15571       138  DOPC      HS             23.9863609024      -20.6098216899      -14.3013263396  MEMB      110             0.0000000000
     15572       138  DOPC      O21            25.9590999301      -20.3372708535      -15.2034284433  MEMB      110             0.0000000000
     15573       138  DOPC      C21            26.1407743268      -19.3079953071      -14.4014973842  MEMB      110             0.0000000000
     15574       138  DOPC      O22            25.5906622180      -19.1275140420      -13.3553323455  MEMB      110             0.0000000000
     15575       138  DOPC      C22            27.0097374520      -18.2188933519      -14.9951915210  MEMB      110             0.0000000000
     15576       138  DOPC      H2R            26.4660436327      -17.7367652615      -15.8355905178  MEMB      110             0.0000000000
     15577       138  DOPC      H2S            27.9394461743      -18.6347951194      -15.4390250016  MEMB      110             0.0000000000
     15578       138  DOPC      C3             25.2194276690      -22.4045116422      -14.1492909636  MEMB      110             0.0000000000
     15579       138  DOPC      HX             26.0966279920      -22.8493725583      -14.6659526910  MEMB      110             0.0000000000
     15580       138  DOPC      HY             24.3992902818      -23.1516462058      -14.2083298415  MEMB      110             0.0000000000
     15581       138  DOPC      O31            25.5074088237      -21.9950441268      -12.7923715157  MEMB      110             0.0000000000
     15582       138  DOPC      C31            26.1920318295      -22.9949460683      -12.1237173428  MEMB      110             0.0000000000
     15583       138  DOPC      O32            26.3965706330      -24.1058238729      -12.4824398502  MEMB      110             0.0000000000
     15584       138  DOPC      C32            26.5063578026      -22.4821523769      -10.7478096745  MEMB      110             0.0000000000
     15585       138  DOPC      H2X            26.3266250778      -23.3146071605      -10.0343418265  MEMB      110             0.0000000000
     15586       138  DOPC      H2Y            27.5367779195      -22.0866678394      -10.6207369203  MEMB      110             0.0000000000
     15587       138  DOPC      C23            27.3998544745      -17.0965996207      -14.0955230529  MEMB      110             0.0000000000
     15588       138  DOPC      H3R            26.6056586551      -16.6477270397      -13.4614194274  MEMB      110             0.0000000000
     15589       138  DOPC      H3S            27.7897614203      -16.3108638580      -14.7773685505  MEMB      110             0.0000000000
     15590       138  DOPC      C24            28.7720287716      -17.4700870373      -13.2517088672  MEMB      110             0.0000000000
     15591       138  DOPC      H4R            29.2246002087      -16.4848432713      -13.0092325203  MEMB      110             0.0000000000
     15592       138  DOPC      H4S            29.4073929939      -18.0493082031      -13.9553679270  MEMB      110             0.0000000000
     15593       138  DOPC      C25            28.5060577245      -18.1122047588      -11.8390120932  MEMB      110             0.0000000000
     15594       138  DOPC      H5R            28.1298380517      -19.1412486027      -12.0229907997  MEMB      110             0.0000000000
     15595       138  DOPC      H5S            27.7188151786      -17.5581803532      -11.2843704890  MEMB      110             0.0000000000
     15596       138  DOPC      C26            29.7611974241      -17.9729930838      -10.9072804931  MEMB      110             0.0000000000
     15597       138  DOPC      H6R            29.7139066324      -17.1356352718      -10.1786401330  MEMB      110             0.0000000000
     15598       138  DOPC      H6S            30.6589041928      -17.8129406257      -11.5419667265  MEMB      110             0.0000000000
     15599       138  DOPC      C27            29.8533326329      -19.3021850899      -10.1778658612  MEMB      110             0.0000000000
     15600       138  DOPC      H7R            29.9833685150      -20.1807384442      -10.8453653755  MEMB      110             0.0000000000
     15601       138  DOPC      H7S            28.8669438427      -19.4485367567       -9.6880302841  MEMB      110             0.0000000000
     15602       138  DOPC      C28            31.0278777184      -19.0699008081       -9.1082177993  MEMB      110             0.0000000000
     15603       138  DOPC      H8R            30.8285058610      -18.1462146252       -8.5239440859  MEMB      110             0.0000000000
     15604       138  DOPC      H8S            31.9592283700      -18.8437984149       -9.6701653771  MEMB      110             0.0000000000
     15605       138  DOPC      C29            31.3021173351      -20.3178652966       -8.2854152637  MEMB      110             0.0000000000
     15606       138  DOPC      H9R            32.0572877167      -20.9544485665       -8.7696467340  MEMB      110             0.0000000000
     15607       138  DOPC      C210           30.8756437809      -20.5696102584       -7.0303242509  MEMB      110             0.0000000000
     15608       138  DOPC      H10R           31.1533108170      -21.5059973643       -6.5242799020  MEMB      110             0.0000000000
     15609       138  DOPC      C211           29.9855585955      -19.7784979950       -6.0746987150  MEMB      110             0.0000000000
     15610       138  DOPC      H11R           29.2798477612      -19.0810084152       -6.5745007155  MEMB      110             0.0000000000
     15611       138  DOPC      H11S           30.5979001712      -19.1271403989       -5.4150838524  MEMB      110             0.0000000000
     15612       138  DOPC      C212           29.2660789798      -20.8371190689       -5.2135836530  MEMB      110             0.0000000000
     15613       138  DOPC      H12R           29.8687244510      -21.7001998660       -4.8582942009  MEMB      110             0.0000000000
     15614       138  DOPC      H12S           28.4595587607      -21.3677878301       -5.7633448541  MEMB      110             0.0000000000
     15615       138  DOPC      C213           28.3108496407      -20.2497155567       -4.1554753678  MEMB      110             0.0000000000
     15616       138  DOPC      H13R           27.6726729818      -21.0814788572       -3.7877504923  MEMB      110             0.0000000000
     15617       138  DOPC      H13S           27.7221465823      -19.4570709034       -4.6648517363  MEMB      110             0.0000000000
     15618       138  DOPC      C214           29.1167675889      -19.4610841227       -3.1097936836  MEMB      110             0.0000000000
     15619       138  DOPC      H14R           28.3674200031      -19.0772394497       -2.3849065200  MEMB      110             0.0000000000
     15620       138  DOPC      H14S           29.7620604701      -18.6524685319       -3.5148356038  MEMB      110             0.0000000000
     15621       138  DOPC      C215           29.9847561371      -20.3498576157       -2.1578302490  MEMB      110             0.0000000000
     15622       138  DOPC      H15R           30.3426448778      -21.2722096595       -2.6633052774  MEMB      110             0.0000000000
     15623       138  DOPC      H15S           29.3224720383      -20.6058942837       -1.3033452063  MEMB      110             0.0000000000
     15624       138  DOPC      C216           31.2094382955      -19.7063636904       -1.5559930095  MEMB      110             0.0000000000
     15625       138  DOPC      H16R           31.8013565121      -19.3766677774       -2.4364795383  MEMB      110             0.0000000000
     15626       138  DOPC      H16S           31.8908255935      -20.3901001990       -1.0059604931  MEMB      110             0.0000000000
     15627       138  DOPC      C217           30.8590045500      -18.3902381052       -0.8714876201  MEMB      110             0.0000000000
     15628       138  DOPC      H17R           30.0275798803      -17.8179994073       -1.3358111205  MEMB      110             0.0000000000
     15629       138  DOPC      H17S           31.7866232261      -17.7878324025       -0.9761378451  MEMB      110             0.0000000000
     15630       138  DOPC      C218           30.6446551894      -18.6718208036        0.6347547414  MEMB      110             0.0000000000
     15631       138  DOPC      H18R           30.3226382035      -17.7547984513        1.1729890853  MEMB      110             0.0000000000
     15632       138  DOPC      H18S           31.6457743028      -18.9041108146        1.0568006985  MEMB      110             0.0000000000
     15633       138  DOPC      H18T           29.9559873850      -19.5376369887        0.7368325927  MEMB      110             0.0000000000
     15634       138  DOPC      C33            25.6999986683      -21.3306387115      -10.2147415006  MEMB      110             0.0000000000
     15635       138  DOPC      H3X            24.6640977523      -21.7148782790      -10.0981640817  MEMB      110             0.0000000000
     15636       138  DOPC      H3Y            25.6863534749      -20.4792762995      -10.9284057837  MEMB      110             0.0000000000
     15637       138  DOPC      C34            26.0419900428      -20.7773174958       -8.8260347242  MEMB      110             0.0000000000
     15638       138  DOPC      H4X            27.1303128805      -20.5779719442       -8.7253581924  MEMB      110             0.0000000000
     15639       138  DOPC      H4Y            25.6341105485      -21.5053994427       -8.0926504381  MEMB      110             0.0000000000
     15640       138  DOPC      C35            25.1925294976      -19.6172161386       -8.4403285399  MEMB      110             0.0000000000
     15641       138  DOPC      H5X            24.1180070215      -19.8882759522       -8.5193787110  MEMB      110             0.0000000000
     15642       138  DOPC      H5Y            25.4320170269      -18.8136412487       -9.1691870018  MEMB      110             0.0000000000
     15643       138  DOPC      C36            25.5234148650      -19.0724477223       -6.9807064769  MEMB      110             0.0000000000
     15644       138  DOPC      H6X            25.5620960889      -20.0446956447       -6.4444614634  MEMB      110             0.0000000000
     15645       138  DOPC      H6Y            26.5170487207      -18.5946932909       -7.1176864693  MEMB      110             0.0000000000
     15646       138  DOPC      C37            24.5813504299      -17.9987072862       -6.4570670451  MEMB      110             0.0000000000
     15647       138  DOPC      H7X            23.5967563910      -18.3228755463       -6.8568294019  MEMB      110             0.0000000000
     15648       138  DOPC      H7Y            24.5423129103      -18.0229003097       -5.3470168889  MEMB      110             0.0000000000
     15649       138  DOPC      C38            24.8710478433      -16.5939320045       -6.9354066699  MEMB      110             0.0000000000
     15650       138  DOPC      H8X            24.0049380150      -15.9829947747       -6.6023454746  MEMB      110             0.0000000000
     15651       138  DOPC      H8Y            24.9622380486      -16.6425296008       -8.0415909912  MEMB      110             0.0000000000
     15652       138  DOPC      C39            26.0841744924      -15.9067559270       -6.4188377024  MEMB      110             0.0000000000
     15653       138  DOPC      H9X            26.8786864011      -15.6633685573       -7.1396098622  MEMB      110             0.0000000000
     15654       138  DOPC      C310           26.2455524014      -15.4235160992       -5.1502807560  MEMB      110             0.0000000000
     15655       138  DOPC      H10X           27.1527054971      -14.8920331794       -4.8268624077  MEMB      110             0.0000000000
     15656       138  DOPC      C311           25.2796818417      -15.4131164370       -3.9447574348  MEMB      110             0.0000000000
     15657       138  DOPC      H11X           24.2520853141      -15.6793151387       -4.2726368742  MEMB      110             0.0000000000
     15658       138  DOPC      H11Y           25.1361466840      -14.3463188071       -3.6696927001  MEMB      110             0.0000000000
     15659       138  DOPC      C312           25.6495106845      -16.2167922395       -2.6271905191  MEMB      110             0.0000000000
     15660       138  DOPC      H12X           24.9316843841      -15.8485011263       -1.8633787846  MEMB      110             0.0000000000
     15661       138  DOPC      H12Y           26.6858954678      -16.0804490582       -2.2508419726  MEMB      110             0.0000000000
     15662       138  DOPC      C313           25.4168108519      -17.7312970252       -2.7031336485  MEMB      110             0.0000000000
     15663       138  DOPC      H13X           24.4651233092      -17.9385003825       -3.2376214521  MEMB      110             0.0000000000
     15664       138  DOPC      H13Y           26.2319896785      -18.3502168484       -3.1352703101  MEMB      110             0.0000000000
     15665       138  DOPC      C314           25.2003937482      -18.2760934313       -1.2396352450  MEMB      110             0.0000000000
     15666       138  DOPC      H14X           25.9782765906      -17.8361050071       -0.5796129753  MEMB      110             0.0000000000
     15667       138  DOPC      H14Y           24.2422616193      -17.8333187236       -0.8928584516  MEMB      110             0.0000000000
     15668       138  DOPC      C315           25.2087113294      -19.7972385145       -1.2270579120  MEMB      110             0.0000000000
     15669       138  DOPC      H15X           24.8119995488      -20.0722154202       -0.2263942113  MEMB      110             0.0000000000
     15670       138  DOPC      H15Y           26.2725679858      -20.0946942521       -1.3455898471  MEMB      110             0.0000000000
     15671       138  DOPC      C316           24.1989255327      -20.5514900293       -2.1293858182  MEMB      110             0.0000000000
     15672       138  DOPC      H16X           24.4547923201      -20.3833412542       -3.1973649280  MEMB      110             0.0000000000
     15673       138  DOPC      H16Y           24.1806369329      -21.6443581746       -1.9303240738  MEMB      110             0.0000000000
     15674       138  DOPC      C317           22.6975619191      -20.1291024102       -2.0541575612  MEMB      110             0.0000000000
     15675       138  DOPC      H17X           22.6911098709      -19.0644471650       -2.3716295818  MEMB      110             0.0000000000
     15676       138  DOPC      H17Y           22.1272451900      -20.8001234445       -2.7314977908  MEMB      110             0.0000000000
     15677       138  DOPC      C318           21.9667482200      -20.1790591210       -0.7420227241  MEMB      110             0.0000000000
     15678       138  DOPC      H18X           20.9246675515      -19.7998996538       -0.8100484917  MEMB      110             0.0000000000
     15679       138  DOPC      H18Y           21.8970717034      -21.2469667747       -0.4436281023  MEMB      110             0.0000000000
     15680       138  DOPC      H18Z           22.4421370666      -19.6716726521        0.1245123367  MEMB      110             0.0000000000
     15681       139  DOPC      N              -1.1213972531       34.9458457389      -18.4153764335  MEMB      111             0.0000000000
     15682       139  DOPC      C12            -1.3545305041       33.5710832632      -17.7842511663  MEMB      111             0.0000000000
     15683       139  DOPC      H12A           -0.9552199721       33.5247882304      -16.7818501631  MEMB      111             0.0000000000
     15684       139  DOPC      H12B           -0.7750793158       32.8953703563      -18.3958461539  MEMB      111             0.0000000000
     15685       139  DOPC      C13            -1.2461157631       34.7104021305      -19.8800334518  MEMB      111             0.0000000000
     15686       139  DOPC      H13A           -1.1002810373       35.6638723792      -20.3658592939  MEMB      111             0.0000000000
     15687       139  DOPC      H13B           -0.4541559604       34.0697789211      -20.2389227986  MEMB      111             0.0000000000
     15688       139  DOPC      H13C           -2.2264607321       34.4397627094      -20.2434589997  MEMB      111             0.0000000000
     15689       139  DOPC      C14             0.3043803812       35.4615959023      -18.2992435549  MEMB      111             0.0000000000
     15690       139  DOPC      H14A            0.3513224700       36.3545396831      -18.9049235532  MEMB      111             0.0000000000
     15691       139  DOPC      H14B            0.5230422380       35.7328601535      -17.2769898145  MEMB      111             0.0000000000
     15692       139  DOPC      H14C            1.1410661792       34.8343698537      -18.5693259131  MEMB      111             0.0000000000
     15693       139  DOPC      C15            -2.1500704778       35.9655259041      -17.9984754672  MEMB      111             0.0000000000
     15694       139  DOPC      H15A           -1.9750896797       36.8357094125      -18.6137497265  MEMB      111             0.0000000000
     15695       139  DOPC      H15B           -2.1222597956       36.0749547201      -16.9243935505  MEMB      111             0.0000000000
     15696       139  DOPC      H15C           -3.1476135670       35.5969283424      -18.1867405916  MEMB      111             0.0000000000
     15697       139  DOPC      C11            -2.7886746521       32.9484503061      -17.5949680524  MEMB      111             0.0000000000
     15698       139  DOPC      H11A           -2.6855514484       31.9687309206      -17.0813179873  MEMB      111             0.0000000000
     15699       139  DOPC      H11B           -3.2435245902       33.6066352254      -16.8241080648  MEMB      111             0.0000000000
     15700       139  DOPC      P              -3.2884170264       31.8379915023      -19.9017880432  MEMB      111             0.0000000000
     15701       139  DOPC      O13            -1.9066156526       31.4512539125      -19.9476763363  MEMB      111             0.0000000000
     15702       139  DOPC      O14            -3.9938306551       32.2772344934      -21.1906308667  MEMB      111             0.0000000000
     15703       139  DOPC      O12            -3.5645304291       32.9077823376      -18.7714767503  MEMB      111             0.0000000000
     15704       139  DOPC      O11            -4.0460371479       30.6251539945      -19.2160798685  MEMB      111             0.0000000000
     15705       139  DOPC      C1             -5.4248041353       30.2906140953      -19.2481576058  MEMB      111             0.0000000000
     15706       139  DOPC      HA             -5.5995754484       29.5844977010      -20.0879051853  MEMB      111             0.0000000000
     15707       139  DOPC      HB             -6.1211668293       31.1548736169      -19.1986052462  MEMB      111             0.0000000000
     15708       139  DOPC      C2             -5.7932589605       29.4696155340      -17.9974832113  MEMB      111             0.0000000000
     15709       139  DOPC      HS             -6.8772834457       29.2315587507      -17.9470788293  MEMB      111             0.0000000000
     15710       139  DOPC      O21            -5.2813577153       30.1205235355      -16.7961800090  MEMB      111             0.0000000000
     15711       139  DOPC      C21            -5.9319913233       31.1855133397      -16.2600263475  MEMB      111             0.0000000000
     15712       139  DOPC      O22            -6.8468289019       31.7061650775      -16.7981467417  MEMB      111             0.0000000000
     15713       139  DOPC      C22            -5.3990513308       31.5081906778      -14.8687832154  MEMB      111             0.0000000000
     15714       139  DOPC      H2R            -4.4638027990       32.0751379714      -15.0642363569  MEMB      111             0.0000000000
     15715       139  DOPC      H2S            -5.1435396776       30.5596153510      -14.3499003645  MEMB      111             0.0000000000
     15716       139  DOPC      C3             -5.2071899010       28.0526460336      -17.9530718531  MEMB      111             0.0000000000
     15717       139  DOPC      HX             -5.5251228261       27.5172473855      -18.8731739927  MEMB      111             0.0000000000
     15718       139  DOPC      HY             -5.8013003706       27.5043185705      -17.1910408547  MEMB      111             0.0000000000
     15719       139  DOPC      O31            -3.7647764914       28.1420141921      -17.6253411706  MEMB      111             0.0000000000
     15720       139  DOPC      C31            -2.8932085872       27.9483072409      -18.5279142155  MEMB      111             0.0000000000
     15721       139  DOPC      O32            -3.1321302570       27.8478140565      -19.7459125830  MEMB      111             0.0000000000
     15722       139  DOPC      C32            -1.5292895183       28.0363902524      -17.8637931630  MEMB      111             0.0000000000
     15723       139  DOPC      H2X            -1.1439302531       27.0178325655      -17.6438851089  MEMB      111             0.0000000000
     15724       139  DOPC      H2Y            -0.9242764668       28.5350563408      -18.6509478753  MEMB      111             0.0000000000
     15725       139  DOPC      C23            -6.5515262441       32.2300764073      -14.0280776179  MEMB      111             0.0000000000
     15726       139  DOPC      H3R            -7.4654766350       31.5984330719      -14.0215347682  MEMB      111             0.0000000000
     15727       139  DOPC      H3S            -6.8324918938       33.2287752194      -14.4255443584  MEMB      111             0.0000000000
     15728       139  DOPC      C24            -5.9313230695       32.2853870139      -12.6381589833  MEMB      111             0.0000000000
     15729       139  DOPC      H4R            -4.9716262770       32.8376341689      -12.5469119530  MEMB      111             0.0000000000
     15730       139  DOPC      H4S            -5.8407886374       31.2348113996      -12.2882795050  MEMB      111             0.0000000000
     15731       139  DOPC      C25            -6.7875502563       33.1126584512      -11.5989356905  MEMB      111             0.0000000000
     15732       139  DOPC      H5R            -7.7493552598       32.5739836358      -11.4608009406  MEMB      111             0.0000000000
     15733       139  DOPC      H5S            -6.9138599549       34.1542669373      -11.9642009961  MEMB      111             0.0000000000
     15734       139  DOPC      C26            -6.1394599052       33.0854038299      -10.1653031277  MEMB      111             0.0000000000
     15735       139  DOPC      H6R            -6.7017303064       33.8065296622       -9.5343110595  MEMB      111             0.0000000000
     15736       139  DOPC      H6S            -5.1080846569       33.4773086311      -10.2956742372  MEMB      111             0.0000000000
     15737       139  DOPC      C27            -6.1385358613       31.6494739020       -9.5812705552  MEMB      111             0.0000000000
     15738       139  DOPC      H7R            -5.4929346642       31.0050457332      -10.2154881797  MEMB      111             0.0000000000
     15739       139  DOPC      H7S            -7.1254181605       31.1470416928       -9.6704110206  MEMB      111             0.0000000000
     15740       139  DOPC      C28            -5.5934471247       31.5445262523       -8.1319399209  MEMB      111             0.0000000000
     15741       139  DOPC      H8R            -4.6762070145       32.1713356012       -8.1420087271  MEMB      111             0.0000000000
     15742       139  DOPC      H8S            -5.4129573621       30.4514535121       -8.0486547283  MEMB      111             0.0000000000
     15743       139  DOPC      C29            -6.5749681919       32.0356243151       -7.0821912966  MEMB      111             0.0000000000
     15744       139  DOPC      H9R            -7.4402112182       32.4928922972       -7.5844475136  MEMB      111             0.0000000000
     15745       139  DOPC      C210           -6.3202240782       32.1696140135       -5.8106013434  MEMB      111             0.0000000000
     15746       139  DOPC      H10R           -7.1318196511       32.5139443764       -5.1527646028  MEMB      111             0.0000000000
     15747       139  DOPC      C211           -5.0069768156       31.8508137843       -5.1942319742  MEMB      111             0.0000000000
     15748       139  DOPC      H11R           -4.2265612618       31.5041380254       -5.9049277374  MEMB      111             0.0000000000
     15749       139  DOPC      H11S           -5.2597829321       31.1750605918       -4.3493848641  MEMB      111             0.0000000000
     15750       139  DOPC      C212           -4.4264471190       33.1674233054       -4.6961400256  MEMB      111             0.0000000000
     15751       139  DOPC      H12R           -5.1546581620       33.7188640941       -4.0637298108  MEMB      111             0.0000000000
     15752       139  DOPC      H12S           -4.1908330550       33.8097342589       -5.5714933507  MEMB      111             0.0000000000
     15753       139  DOPC      C213           -3.1288169314       32.9650255862       -3.8369279665  MEMB      111             0.0000000000
     15754       139  DOPC      H13R           -2.4141293291       32.2613381719       -4.3148053896  MEMB      111             0.0000000000
     15755       139  DOPC      H13S           -3.4708380666       32.5062502537       -2.8846325222  MEMB      111             0.0000000000
     15756       139  DOPC      C214           -2.4182363704       34.2928800162       -3.5005390311  MEMB      111             0.0000000000
     15757       139  DOPC      H14R           -2.9298831755       34.7736804746       -2.6395107875  MEMB      111             0.0000000000
     15758       139  DOPC      H14S           -2.6748752171       34.9010901119       -4.3941487023  MEMB      111             0.0000000000
     15759       139  DOPC      C215           -0.9370069834       34.2296525425       -3.0959724768  MEMB      111             0.0000000000
     15760       139  DOPC      H15R           -0.3769652152       35.1778128437       -2.9487777028  MEMB      111             0.0000000000
     15761       139  DOPC      H15S           -0.5092364758       33.6111767120       -3.9137865928  MEMB      111             0.0000000000
     15762       139  DOPC      C216           -0.7073060885       33.3336764551       -1.8522122015  MEMB      111             0.0000000000
     15763       139  DOPC      H16R            0.3848235405       33.2800246508       -1.6555020732  MEMB      111             0.0000000000
     15764       139  DOPC      H16S           -1.2202606777       32.3525487324       -1.9448802018  MEMB      111             0.0000000000
     15765       139  DOPC      C217           -1.3843842112       33.7976128340       -0.5574629354  MEMB      111             0.0000000000
     15766       139  DOPC      H17R           -2.4903725567       33.7070882359       -0.5034598860  MEMB      111             0.0000000000
     15767       139  DOPC      H17S           -1.1970945116       34.8885254216       -0.4617901947  MEMB      111             0.0000000000
     15768       139  DOPC      C218           -0.7655942971       32.9766835975        0.6000332197  MEMB      111             0.0000000000
     15769       139  DOPC      H18R           -1.3310407732       33.1733101361        1.5359438256  MEMB      111             0.0000000000
     15770       139  DOPC      H18S            0.3274771041       33.0484741987        0.7854040891  MEMB      111             0.0000000000
     15771       139  DOPC      H18T           -0.9169807658       31.8898927640        0.4259967613  MEMB      111             0.0000000000
     15772       139  DOPC      C33            -1.6059227761       28.8439492908      -16.5018156755  MEMB      111             0.0000000000
     15773       139  DOPC      H3X            -2.0845071696       28.1908365196      -15.7410780870  MEMB      111             0.0000000000
     15774       139  DOPC      H3Y            -2.1987200928       29.7814319399      -16.5653634892  MEMB      111             0.0000000000
     15775       139  DOPC      C34            -0.2000683530       29.2647718669      -15.8773633081  MEMB      111             0.0000000000
     15776       139  DOPC      H4X             0.1756220108       29.9799502205      -16.6400544609  MEMB      111             0.0000000000
     15777       139  DOPC      H4Y             0.4990065366       28.4255767074      -15.6739744028  MEMB      111             0.0000000000
     15778       139  DOPC      C35            -0.3589446321       29.9668560932      -14.4945826571  MEMB      111             0.0000000000
     15779       139  DOPC      H5X            -1.2155293837       30.6718520102      -14.5542853642  MEMB      111             0.0000000000
     15780       139  DOPC      H5Y             0.5272008743       30.5717415879      -14.2061721008  MEMB      111             0.0000000000
     15781       139  DOPC      C36            -0.2774360371       28.9687208280      -13.3207472422  MEMB      111             0.0000000000
     15782       139  DOPC      H6X            -1.2165410289       28.3769156704      -13.3673252495  MEMB      111             0.0000000000
     15783       139  DOPC      H6Y             0.6061513363       28.2955397658      -13.3002090064  MEMB      111             0.0000000000
     15784       139  DOPC      C37            -0.1520290303       29.7377678462      -11.9876346234  MEMB      111             0.0000000000
     15785       139  DOPC      H7X             0.2326496700       29.0420212086      -11.2115676582  MEMB      111             0.0000000000
     15786       139  DOPC      H7Y             0.6234894541       30.5233133619      -12.1133744073  MEMB      111             0.0000000000
     15787       139  DOPC      C38            -1.3906950286       30.4948384861      -11.5059358788  MEMB      111             0.0000000000
     15788       139  DOPC      H8X            -2.2773707874       29.8626509852      -11.7260852991  MEMB      111             0.0000000000
     15789       139  DOPC      H8Y            -1.5737429234       31.3981056771      -12.1263576944  MEMB      111             0.0000000000
     15790       139  DOPC      C39            -1.3539993021       30.9035708141      -10.0251412399  MEMB      111             0.0000000000
     15791       139  DOPC      H9X            -0.8932574787       31.8931249922       -9.8891284790  MEMB      111             0.0000000000
     15792       139  DOPC      C310           -1.8635972394       30.3378590268       -8.9344967575  MEMB      111             0.0000000000
     15793       139  DOPC      H10X           -1.7456196209       30.8170794235       -7.9514256550  MEMB      111             0.0000000000
     15794       139  DOPC      C311           -2.5586829734       28.9607300556       -8.9456862037  MEMB      111             0.0000000000
     15795       139  DOPC      H11X           -2.5259211887       28.4822449680       -9.9478338193  MEMB      111             0.0000000000
     15796       139  DOPC      H11Y           -3.6390378987       28.9973414374       -8.6891439409  MEMB      111             0.0000000000
     15797       139  DOPC      C312           -1.8368094706       27.9821907254       -7.9684343435  MEMB      111             0.0000000000
     15798       139  DOPC      H12X           -0.7777112746       28.2144801943       -7.7262075517  MEMB      111             0.0000000000
     15799       139  DOPC      H12Y           -1.9029119481       26.9804244740       -8.4442656955  MEMB      111             0.0000000000
     15800       139  DOPC      C313           -2.6358071289       27.8094009097       -6.6560909503  MEMB      111             0.0000000000
     15801       139  DOPC      H13X           -2.7139467388       28.8857866497       -6.3922560795  MEMB      111             0.0000000000
     15802       139  DOPC      H13Y           -3.6498863984       27.3759263829       -6.7904940001  MEMB      111             0.0000000000
     15803       139  DOPC      C314           -1.9341182496       27.0997042941       -5.4884149595  MEMB      111             0.0000000000
     15804       139  DOPC      H14X           -2.6069871508       26.3123640915       -5.0863419415  MEMB      111             0.0000000000
     15805       139  DOPC      H14Y           -0.9592964094       26.7221783526       -5.8646033465  MEMB      111             0.0000000000
     15806       139  DOPC      C315           -1.6319852960       27.9740784436       -4.2547496874  MEMB      111             0.0000000000
     15807       139  DOPC      H15X           -1.0263086023       28.8471771826       -4.5790568844  MEMB      111             0.0000000000
     15808       139  DOPC      H15Y           -1.0357862316       27.3052690214       -3.5978167361  MEMB      111             0.0000000000
     15809       139  DOPC      C316           -2.9484028818       28.4134085767       -3.5429142090  MEMB      111             0.0000000000
     15810       139  DOPC      H16X           -3.3552347920       29.2819814092       -4.1036189752  MEMB      111             0.0000000000
     15811       139  DOPC      H16Y           -3.6645788490       27.5830488723       -3.7215635003  MEMB      111             0.0000000000
     15812       139  DOPC      C317           -2.8280937384       28.7739873304       -2.0367486629  MEMB      111             0.0000000000
     15813       139  DOPC      H17X           -2.6509804993       27.8684984823       -1.4178463744  MEMB      111             0.0000000000
     15814       139  DOPC      H17Y           -2.0618579357       29.5780069213       -2.0092433951  MEMB      111             0.0000000000
     15815       139  DOPC      C318           -4.1240271975       29.3490112295       -1.5000002380  MEMB      111             0.0000000000
     15816       139  DOPC      H18X           -4.5298113523       30.1687712413       -2.1305969962  MEMB      111             0.0000000000
     15817       139  DOPC      H18Y           -4.8724522955       28.5469065374       -1.6755242968  MEMB      111             0.0000000000
     15818       139  DOPC      H18Z           -4.0200364528       29.5670649649       -0.4155834926  MEMB      111             0.0000000000
     15819       140  DOPC      N              22.4102583181       23.0585075738      -20.7291846007  MEMB      112             0.0000000000
     15820       140  DOPC      C12            21.0634002065       22.6691621347      -20.1193680214  MEMB      112             0.0000000000
     15821       140  DOPC      H12A           21.1015352431       21.5901323541      -20.1446708936  MEMB      112             0.0000000000
     15822       140  DOPC      H12B           20.3215754431       22.9683545153      -20.8450263093  MEMB      112             0.0000000000
     15823       140  DOPC      C13            23.5967367539       22.7335850576      -19.8693186141  MEMB      112             0.0000000000
     15824       140  DOPC      H13A           23.4052001891       23.1736568146      -18.9018215201  MEMB      112             0.0000000000
     15825       140  DOPC      H13B           23.7289625694       21.6918759443      -19.6168145140  MEMB      112             0.0000000000
     15826       140  DOPC      H13C           24.5187493882       23.0814619191      -20.3112171518  MEMB      112             0.0000000000
     15827       140  DOPC      C14            22.5317304009       24.5489627621      -20.9847262798  MEMB      112             0.0000000000
     15828       140  DOPC      H14A           23.5822677240       24.6788155261      -21.1989916664  MEMB      112             0.0000000000
     15829       140  DOPC      H14B           21.8542623575       24.8245293089      -21.7793960525  MEMB      112             0.0000000000
     15830       140  DOPC      H14C           22.2170043114       25.1123976865      -20.1187652369  MEMB      112             0.0000000000
     15831       140  DOPC      C15            22.5429992606       22.3778297337      -22.0420435236  MEMB      112             0.0000000000
     15832       140  DOPC      H15A           23.4147042190       22.8179095988      -22.5034112244  MEMB      112             0.0000000000
     15833       140  DOPC      H15B           21.6024857536       22.5229929867      -22.5526918759  MEMB      112             0.0000000000
     15834       140  DOPC      H15C           22.7595890053       21.3213280066      -21.9846565775  MEMB      112             0.0000000000
     15835       140  DOPC      C11            20.6922554987       23.2579520882      -18.6643594619  MEMB      112             0.0000000000
     15836       140  DOPC      H11A           19.6949930741       22.8148671352      -18.4558780440  MEMB      112             0.0000000000
     15837       140  DOPC      H11B           21.2731592325       22.7644960806      -17.8560445674  MEMB      112             0.0000000000
     15838       140  DOPC      P              20.3397474252       25.3878136395      -17.2815180552  MEMB      112             0.0000000000
     15839       140  DOPC      O13            18.9482639378       24.9585681919      -16.9842494125  MEMB      112             0.0000000000
     15840       140  DOPC      O14            20.4799349385       26.8281249453      -17.4657103964  MEMB      112             0.0000000000
     15841       140  DOPC      O12            20.8271794393       24.7071303781      -18.6396260383  MEMB      112             0.0000000000
     15842       140  DOPC      O11            21.2617117708       24.8387800971      -16.2198955978  MEMB      112             0.0000000000
     15843       140  DOPC      C1             22.6773758355       24.7803012886      -16.3651000994  MEMB      112             0.0000000000
     15844       140  DOPC      HA             23.1051653545       25.2714058114      -17.2651741784  MEMB      112             0.0000000000
     15845       140  DOPC      HB             22.8529788384       23.6873030349      -16.4591181560  MEMB      112             0.0000000000
     15846       140  DOPC      C2             23.4432171112       25.1592570028      -15.0873179648  MEMB      112             0.0000000000
     15847       140  DOPC      HS             24.4711883873       24.7416923152      -15.1442030943  MEMB      112             0.0000000000
     15848       140  DOPC      O21            22.7627754245       24.7304038270      -13.8456459346  MEMB      112             0.0000000000
     15849       140  DOPC      C21            22.2728654317       23.5540161468      -13.6887016919  MEMB      112             0.0000000000
     15850       140  DOPC      O22            22.3611019915       22.6619870337      -14.4890078452  MEMB      112             0.0000000000
     15851       140  DOPC      C22            21.4829313130       23.4447739968      -12.4366232951  MEMB      112             0.0000000000
     15852       140  DOPC      H2R            22.2210482248       23.2723581594      -11.6243562663  MEMB      112             0.0000000000
     15853       140  DOPC      H2S            21.0057919498       22.4421303647      -12.4735645845  MEMB      112             0.0000000000
     15854       140  DOPC      C3             23.5680573512       26.7502592113      -15.2117452904  MEMB      112             0.0000000000
     15855       140  DOPC      HX             23.8959703605       27.0393042751      -16.2331399941  MEMB      112             0.0000000000
     15856       140  DOPC      HY             24.3653315189       27.1269300152      -14.5358802752  MEMB      112             0.0000000000
     15857       140  DOPC      O31            22.3457452941       27.4473982167      -14.9771514460  MEMB      112             0.0000000000
     15858       140  DOPC      C31            21.9701287252       27.6528641725      -13.7312584089  MEMB      112             0.0000000000
     15859       140  DOPC      O32            22.6694350988       27.4302702344      -12.7540944442  MEMB      112             0.0000000000
     15860       140  DOPC      C32            20.4731119905       28.0276278159      -13.7967975973  MEMB      112             0.0000000000
     15861       140  DOPC      H2X            20.2570353198       28.8409689694      -14.5221301530  MEMB      112             0.0000000000
     15862       140  DOPC      H2Y            19.8836649581       27.1404971456      -14.1128237670  MEMB      112             0.0000000000
     15863       140  DOPC      C23            20.4296107749       24.4898924971      -12.1979345167  MEMB      112             0.0000000000
     15864       140  DOPC      H3R            19.4599627596       24.1476571736      -12.6186227402  MEMB      112             0.0000000000
     15865       140  DOPC      H3S            20.6214489309       25.4847499684      -12.6537609747  MEMB      112             0.0000000000
     15866       140  DOPC      C24            20.1094963114       24.8749016331      -10.7687242807  MEMB      112             0.0000000000
     15867       140  DOPC      H4R            19.8524024529       24.0073499415      -10.1240712849  MEMB      112             0.0000000000
     15868       140  DOPC      H4S            19.2683414398       25.5774561856      -10.5865259387  MEMB      112             0.0000000000
     15869       140  DOPC      C25            21.3461286548       25.4487254140      -10.0606122374  MEMB      112             0.0000000000
     15870       140  DOPC      H5R            21.8726499505       26.2290803075      -10.6506485079  MEMB      112             0.0000000000
     15871       140  DOPC      H5S            21.9611980338       24.5254371900      -10.1201894529  MEMB      112             0.0000000000
     15872       140  DOPC      C26            21.0133932375       25.7460414433       -8.5807148698  MEMB      112             0.0000000000
     15873       140  DOPC      H6R            20.6085135193       24.8540850849       -8.0564943044  MEMB      112             0.0000000000
     15874       140  DOPC      H6S            20.2806180653       26.5801638656       -8.5406964299  MEMB      112             0.0000000000
     15875       140  DOPC      C27            22.2585551215       26.2270634773       -7.8122904183  MEMB      112             0.0000000000
     15876       140  DOPC      H7R            22.7537135051       25.2940839554       -7.4677784885  MEMB      112             0.0000000000
     15877       140  DOPC      H7S            21.7781424845       26.5863576900       -6.8771790601  MEMB      112             0.0000000000
     15878       140  DOPC      C28            23.1782556353       27.1939413380       -8.5588381278  MEMB      112             0.0000000000
     15879       140  DOPC      H8R            22.4918719116       28.0259529412       -8.8252120786  MEMB      112             0.0000000000
     15880       140  DOPC      H8S            23.6027427955       26.7808783714       -9.4987900850  MEMB      112             0.0000000000
     15881       140  DOPC      C29            24.3022074115       27.9488439620       -7.7885531133  MEMB      112             0.0000000000
     15882       140  DOPC      H9R            24.6057108184       28.8253723775       -8.3798091694  MEMB      112             0.0000000000
     15883       140  DOPC      C210           24.8245039761       27.7146523193       -6.5476145949  MEMB      112             0.0000000000
     15884       140  DOPC      H10R           25.6997695368       28.3235803753       -6.2772142477  MEMB      112             0.0000000000
     15885       140  DOPC      C211           24.5226774478       26.6855967681       -5.4796624750  MEMB      112             0.0000000000
     15886       140  DOPC      H11R           23.4312085577       26.4975427128       -5.5671403720  MEMB      112             0.0000000000
     15887       140  DOPC      H11S           24.6876941509       27.0809096510       -4.4545683730  MEMB      112             0.0000000000
     15888       140  DOPC      C212           25.0804168969       25.2158184165       -5.5814344627  MEMB      112             0.0000000000
     15889       140  DOPC      H12R           26.1715903729       25.0785977539       -5.7390162852  MEMB      112             0.0000000000
     15890       140  DOPC      H12S           24.5975284590       24.7488524572       -6.4663540247  MEMB      112             0.0000000000
     15891       140  DOPC      C213           24.6759568346       24.4093740050       -4.3380023311  MEMB      112             0.0000000000
     15892       140  DOPC      H13R           24.6936980925       24.9423108459       -3.3633309947  MEMB      112             0.0000000000
     15893       140  DOPC      H13S           25.3100650533       23.5122350846       -4.1725662675  MEMB      112             0.0000000000
     15894       140  DOPC      C214           23.3147345842       23.7864302314       -4.5109655109  MEMB      112             0.0000000000
     15895       140  DOPC      H14R           23.3607462687       23.2094328628       -5.4592681396  MEMB      112             0.0000000000
     15896       140  DOPC      H14S           22.5847742459       24.5894791037       -4.7488559523  MEMB      112             0.0000000000
     15897       140  DOPC      C215           22.9086253959       22.9165877240       -3.2540173078  MEMB      112             0.0000000000
     15898       140  DOPC      H15R           23.1311679017       23.3694729806       -2.2642236744  MEMB      112             0.0000000000
     15899       140  DOPC      H15S           23.5628314871       22.0188226518       -3.2728127347  MEMB      112             0.0000000000
     15900       140  DOPC      C216           21.4368239222       22.4287805057       -3.2521242308  MEMB      112             0.0000000000
     15901       140  DOPC      H16R           21.4490563919       21.6313049735       -2.4786873286  MEMB      112             0.0000000000
     15902       140  DOPC      H16S           21.2883623997       21.9860483009       -4.2602255013  MEMB      112             0.0000000000
     15903       140  DOPC      C217           20.3071232164       23.5125462410       -3.0037659077  MEMB      112             0.0000000000
     15904       140  DOPC      H17R           19.4234352477       22.8465432669       -3.1030437698  MEMB      112             0.0000000000
     15905       140  DOPC      H17S           20.2776433064       24.1676855773       -3.9005624646  MEMB      112             0.0000000000
     15906       140  DOPC      C218           20.3484454990       24.3695801088       -1.6810900522  MEMB      112             0.0000000000
     15907       140  DOPC      H18R           20.7081819236       23.7617774550       -0.8234852512  MEMB      112             0.0000000000
     15908       140  DOPC      H18S           19.2805154614       24.6621550817       -1.5902801742  MEMB      112             0.0000000000
     15909       140  DOPC      H18T           21.0897041111       25.1894222910       -1.7938560296  MEMB      112             0.0000000000
     15910       140  DOPC      C33            19.9826879887       28.6063500326      -12.4487370078  MEMB      112             0.0000000000
     15911       140  DOPC      H3X            20.2037060900       27.8496474949      -11.6658747475  MEMB      112             0.0000000000
     15912       140  DOPC      H3Y            18.8723752088       28.6282550561      -12.4810859689  MEMB      112             0.0000000000
     15913       140  DOPC      C34            20.4854193380       30.0207827461      -12.0199971517  MEMB      112             0.0000000000
     15914       140  DOPC      H4X            20.3598473091       30.7625909204      -12.8374769871  MEMB      112             0.0000000000
     15915       140  DOPC      H4Y            21.5600980725       29.9997726493      -11.7390248697  MEMB      112             0.0000000000
     15916       140  DOPC      C35            19.6148945057       30.6858401933      -10.9481278259  MEMB      112             0.0000000000
     15917       140  DOPC      H5X            18.5972069434       30.6827574199      -11.3937997490  MEMB      112             0.0000000000
     15918       140  DOPC      H5Y            19.9396442176       31.7309265208      -10.7566775877  MEMB      112             0.0000000000
     15919       140  DOPC      C36            19.8681440761       30.0538367417       -9.5831067113  MEMB      112             0.0000000000
     15920       140  DOPC      H6X            19.9994539653       28.9549805171       -9.6810531045  MEMB      112             0.0000000000
     15921       140  DOPC      H6Y            20.7591962789       30.5539278268       -9.1469229808  MEMB      112             0.0000000000
     15922       140  DOPC      C37            18.7285049023       30.2685240879       -8.5150278348  MEMB      112             0.0000000000
     15923       140  DOPC      H7X            18.1363801411       31.1967423373       -8.6637584052  MEMB      112             0.0000000000
     15924       140  DOPC      H7Y            18.0057721086       29.4366542620       -8.6563464887  MEMB      112             0.0000000000
     15925       140  DOPC      C38            19.2809831212       30.0663592510       -7.0432057450  MEMB      112             0.0000000000
     15926       140  DOPC      H8X            18.4356725995       30.3205172502       -6.3685385375  MEMB      112             0.0000000000
     15927       140  DOPC      H8Y            19.9466088533       30.9419190225       -6.8861751665  MEMB      112             0.0000000000
     15928       140  DOPC      C39            19.8367556164       28.7132506487       -6.8210900804  MEMB      112             0.0000000000
     15929       140  DOPC      H9X            20.7512772851       28.4636749891       -7.3790881572  MEMB      112             0.0000000000
     15930       140  DOPC      C310           19.3385909857       27.7149826641       -6.1103938730  MEMB      112             0.0000000000
     15931       140  DOPC      H10X           19.8675536687       26.7507075441       -6.0911004293  MEMB      112             0.0000000000
     15932       140  DOPC      C311           18.0458169393       27.7422556050       -5.3065216789  MEMB      112             0.0000000000
     15933       140  DOPC      H11X           17.6267391383       26.7141540483       -5.3477768017  MEMB      112             0.0000000000
     15934       140  DOPC      H11Y           17.3622112099       28.3575633266       -5.9297404127  MEMB      112             0.0000000000
     15935       140  DOPC      C312           18.1886727640       28.4148837607       -3.9536441303  MEMB      112             0.0000000000
     15936       140  DOPC      H12X           17.1668009221       28.7519202771       -3.6770487357  MEMB      112             0.0000000000
     15937       140  DOPC      H12Y           18.7876818101       29.3500106304       -3.9859992789  MEMB      112             0.0000000000
     15938       140  DOPC      C313           18.8076066818       27.5140739943       -2.9338831215  MEMB      112             0.0000000000
     15939       140  DOPC      H13X           18.2290815615       26.5657178652       -2.9496780022  MEMB      112             0.0000000000
     15940       140  DOPC      H13Y           19.8097152726       27.2591971772       -3.3402530914  MEMB      112             0.0000000000
     15941       140  DOPC      C314           18.9365990260       28.2762508904       -1.5182802910  MEMB      112             0.0000000000
     15942       140  DOPC      H14X           18.0465092939       28.8815028958       -1.2430884993  MEMB      112             0.0000000000
     15943       140  DOPC      H14Y           19.1981115403       27.4921138399       -0.7759463992  MEMB      112             0.0000000000
     15944       140  DOPC      C315           20.2395483016       29.1135355434       -1.5402219940  MEMB      112             0.0000000000
     15945       140  DOPC      H15X           20.4255658551       29.6460648991       -0.5830744355  MEMB      112             0.0000000000
     15946       140  DOPC      H15Y           20.0922652972       29.7715832420       -2.4231735627  MEMB      112             0.0000000000
     15947       140  DOPC      C316           21.6074272157       28.4864674853       -1.8188187964  MEMB      112             0.0000000000
     15948       140  DOPC      H16X           21.6088712842       27.8112710087       -2.7011056422  MEMB      112             0.0000000000
     15949       140  DOPC      H16Y           22.3397617634       29.2858005242       -2.0618698521  MEMB      112             0.0000000000
     15950       140  DOPC      C317           22.2256197333       27.5905131583       -0.7007077830  MEMB      112             0.0000000000
     15951       140  DOPC      H17X           22.3432117464       28.2244501228        0.2040661507  MEMB      112             0.0000000000
     15952       140  DOPC      H17Y           21.3939760819       26.9398991265       -0.3551771713  MEMB      112             0.0000000000
     15953       140  DOPC      C318           23.6304993998       27.0075875903       -0.8309976588  MEMB      112             0.0000000000
     15954       140  DOPC      H18X           24.3317183325       27.8080251716       -1.1502351795  MEMB      112             0.0000000000
     15955       140  DOPC      H18Y           24.0250280522       26.4949802465        0.0722751710  MEMB      112             0.0000000000
     15956       140  DOPC      H18Z           23.5707754833       26.2506714599       -1.6420649808  MEMB      112             0.0000000000
     15957       141  DOPC      N             -30.4703083510        5.2563320170      -19.7005187248  MEMB      113             0.0000000000
     15958       141  DOPC      C12           -30.3759160405        6.5146227104      -20.5339401878  MEMB      113             0.0000000000
     15959       141  DOPC      H12A          -31.3662994969        6.7946413167      -20.8612475510  MEMB      113             0.0000000000
     15960       141  DOPC      H12B          -29.8717033754        6.3288664781      -21.4707775740  MEMB      113             0.0000000000
     15961       141  DOPC      C13           -31.2442980596        5.5271780799      -18.3824114238  MEMB      113             0.0000000000
     15962       141  DOPC      H13A          -31.2591596642        4.7241415522      -17.6603922970  MEMB      113             0.0000000000
     15963       141  DOPC      H13B          -30.8428985239        6.3499143961      -17.8093642104  MEMB      113             0.0000000000
     15964       141  DOPC      H13C          -32.2631194677        5.6924696900      -18.7003449073  MEMB      113             0.0000000000
     15965       141  DOPC      C14           -29.0554140241        4.7980573472      -19.4063784181  MEMB      113             0.0000000000
     15966       141  DOPC      H14A          -28.6322432399        4.6445200322      -20.3880876575  MEMB      113             0.0000000000
     15967       141  DOPC      H14B          -28.5977721944        5.5874076794      -18.8285461665  MEMB      113             0.0000000000
     15968       141  DOPC      H14C          -29.0294382529        3.8548372276      -18.8809633676  MEMB      113             0.0000000000
     15969       141  DOPC      C15           -31.1149136722        4.2089835685      -20.4960666694  MEMB      113             0.0000000000
     15970       141  DOPC      H15A          -30.4157621353        3.8062899797      -21.2139976794  MEMB      113             0.0000000000
     15971       141  DOPC      H15B          -31.9548378659        4.6061717311      -21.0466746444  MEMB      113             0.0000000000
     15972       141  DOPC      H15C          -31.3401699669        3.3208036730      -19.9244057368  MEMB      113             0.0000000000
     15973       141  DOPC      C11           -29.7046646168        7.8056882545      -19.8999013491  MEMB      113             0.0000000000
     15974       141  DOPC      H11A          -28.6590084630        7.5754059810      -19.6034315838  MEMB      113             0.0000000000
     15975       141  DOPC      H11B          -29.8312159947        8.5070342515      -20.7522037530  MEMB      113             0.0000000000
     15976       141  DOPC      P             -29.9782552499        9.5653998562      -18.1218046110  MEMB      113             0.0000000000
     15977       141  DOPC      O13           -30.8790203405        9.9499185713      -17.0380780196  MEMB      113             0.0000000000
     15978       141  DOPC      O14           -29.7290260124       10.4762992114      -19.2420409197  MEMB      113             0.0000000000
     15979       141  DOPC      O12           -30.4718723278        8.2520488378      -18.7880807444  MEMB      113             0.0000000000
     15980       141  DOPC      O11           -28.6619949252        9.1778641871      -17.3907789316  MEMB      113             0.0000000000
     15981       141  DOPC      C1            -28.7162102620        7.9758054859      -16.6733155425  MEMB      113             0.0000000000
     15982       141  DOPC      HA            -27.8897610895        7.4187106613      -17.1641801188  MEMB      113             0.0000000000
     15983       141  DOPC      HB            -29.6486857780        7.4024825868      -16.8633449578  MEMB      113             0.0000000000
     15984       141  DOPC      C2            -28.3748497755        8.1934493444      -15.1874221456  MEMB      113             0.0000000000
     15985       141  DOPC      HS            -28.3620274299        7.2224814702      -14.6476277804  MEMB      113             0.0000000000
     15986       141  DOPC      O21           -29.2000328308        9.0899454622      -14.4947912745  MEMB      113             0.0000000000
     15987       141  DOPC      C21           -30.4093652115        8.6270611656      -14.1631029509  MEMB      113             0.0000000000
     15988       141  DOPC      O22           -30.7691161334        7.4959822396      -14.3345286233  MEMB      113             0.0000000000
     15989       141  DOPC      C22           -31.3085452882        9.7667453542      -13.5612034184  MEMB      113             0.0000000000
     15990       141  DOPC      H2R           -32.3683703795        9.5779159524      -13.8358580861  MEMB      113             0.0000000000
     15991       141  DOPC      H2S           -31.0579163608       10.7793402121      -13.9435093840  MEMB      113             0.0000000000
     15992       141  DOPC      C3            -26.8773159790        8.7072971587      -15.1190194121  MEMB      113             0.0000000000
     15993       141  DOPC      HX            -26.8816175657        9.7300096150      -15.5530260426  MEMB      113             0.0000000000
     15994       141  DOPC      HY            -26.2861325155        8.0676092520      -15.8086732883  MEMB      113             0.0000000000
     15995       141  DOPC      O31           -26.4132973284        8.6574765862      -13.7585933253  MEMB      113             0.0000000000
     15996       141  DOPC      C31           -26.4582798509        9.7103286145      -13.0328793273  MEMB      113             0.0000000000
     15997       141  DOPC      O32           -26.9328809783       10.8070168282      -13.3085831577  MEMB      113             0.0000000000
     15998       141  DOPC      C32           -25.7490018498        9.5057572991      -11.7624161794  MEMB      113             0.0000000000
     15999       141  DOPC      H2X           -26.2373325328        8.7155182771      -11.1530097940  MEMB      113             0.0000000000
     16000       141  DOPC      H2Y           -24.6941752887        9.1857489626      -11.9011861434  MEMB      113             0.0000000000
     16001       141  DOPC      C23           -31.1343353007        9.8048648961      -12.0931023156  MEMB      113             0.0000000000
     16002       141  DOPC      H3R           -31.7288707098       10.6598564954      -11.7060133316  MEMB      113             0.0000000000
     16003       141  DOPC      H3S           -30.0620127861        9.9732212990      -11.8562448102  MEMB      113             0.0000000000
     16004       141  DOPC      C24           -31.5847168197        8.5127440726      -11.3674921094  MEMB      113             0.0000000000
     16005       141  DOPC      H4R           -30.7884429622        7.7613605909      -11.5564146205  MEMB      113             0.0000000000
     16006       141  DOPC      H4S           -32.5911581582        8.2995610797      -11.7869561907  MEMB      113             0.0000000000
     16007       141  DOPC      C25           -32.1213729856        8.7788967517       -9.9841679421  MEMB      113             0.0000000000
     16008       141  DOPC      H5R           -32.6555562246        7.8984067520       -9.5673866797  MEMB      113             0.0000000000
     16009       141  DOPC      H5S           -32.8931266956        9.5763591980      -10.0368083515  MEMB      113             0.0000000000
     16010       141  DOPC      C26           -31.0590073342        9.2314112016       -8.9590330456  MEMB      113             0.0000000000
     16011       141  DOPC      H6R           -30.7103110972       10.2135189359       -9.3439955537  MEMB      113             0.0000000000
     16012       141  DOPC      H6S           -30.2539689422        8.4695761956       -8.8826019352  MEMB      113             0.0000000000
     16013       141  DOPC      C27           -31.7560198671        9.3013575729       -7.6163822666  MEMB      113             0.0000000000
     16014       141  DOPC      H7R           -32.1977018877        8.3185857773       -7.3454623877  MEMB      113             0.0000000000
     16015       141  DOPC      H7S           -32.6573269751        9.9409519447       -7.7298962167  MEMB      113             0.0000000000
     16016       141  DOPC      C28           -30.7928423556        9.8437343178       -6.5271820169  MEMB      113             0.0000000000
     16017       141  DOPC      H8R           -30.3652897741       10.7954284525       -6.9090173184  MEMB      113             0.0000000000
     16018       141  DOPC      H8S           -29.9261844451        9.1551891990       -6.4316279541  MEMB      113             0.0000000000
     16019       141  DOPC      C29           -31.4834374628        9.9011489725       -5.1358397485  MEMB      113             0.0000000000
     16020       141  DOPC      H9R           -31.7743832488        8.8916214586       -4.8099485615  MEMB      113             0.0000000000
     16021       141  DOPC      C210          -31.7951068940       10.9371693480       -4.2897419170  MEMB      113             0.0000000000
     16022       141  DOPC      H10R          -32.3388295265       10.7223265299       -3.3579650444  MEMB      113             0.0000000000
     16023       141  DOPC      C211          -31.5748034584       12.4359959561       -4.4644661333  MEMB      113             0.0000000000
     16024       141  DOPC      H11R          -32.5458397866       12.9570372626       -4.3233083127  MEMB      113             0.0000000000
     16025       141  DOPC      H11S          -31.1895175985       12.6586721102       -5.4824497382  MEMB      113             0.0000000000
     16026       141  DOPC      C212          -30.4569668766       12.9758875996       -3.5615999329  MEMB      113             0.0000000000
     16027       141  DOPC      H12R          -30.5933510653       14.0705793332       -3.4298015817  MEMB      113             0.0000000000
     16028       141  DOPC      H12S          -29.4409647633       12.7294841217       -3.9375596838  MEMB      113             0.0000000000
     16029       141  DOPC      C213          -30.3945905362       12.3507354724       -2.1446761616  MEMB      113             0.0000000000
     16030       141  DOPC      H13R          -30.0436532232       11.2972593466       -2.1814428140  MEMB      113             0.0000000000
     16031       141  DOPC      H13S          -31.4465001886       12.4078576627       -1.7917673527  MEMB      113             0.0000000000
     16032       141  DOPC      C214          -29.5457121709       13.1622457936       -1.1715349407  MEMB      113             0.0000000000
     16033       141  DOPC      H14R          -29.9831571530       14.1716534248       -1.0164236372  MEMB      113             0.0000000000
     16034       141  DOPC      H14S          -28.5172595617       13.3382006634       -1.5531709988  MEMB      113             0.0000000000
     16035       141  DOPC      C215          -29.5058411351       12.5424141468        0.2772201778  MEMB      113             0.0000000000
     16036       141  DOPC      H15R          -28.9562644005       13.3436272682        0.8160568014  MEMB      113             0.0000000000
     16037       141  DOPC      H15S          -28.9386347282       11.6119455952        0.0608257555  MEMB      113             0.0000000000
     16038       141  DOPC      C216          -30.7913630142       12.0476695756        0.9918509555  MEMB      113             0.0000000000
     16039       141  DOPC      H16R          -31.4829307341       11.5323903601        0.2914631868  MEMB      113             0.0000000000
     16040       141  DOPC      H16S          -31.3041335464       12.9994964959        1.2476096570  MEMB      113             0.0000000000
     16041       141  DOPC      C217          -30.6265690448       11.0326513203        2.1588407054  MEMB      113             0.0000000000
     16042       141  DOPC      H17R          -29.7041915916       11.3368256075        2.6983018040  MEMB      113             0.0000000000
     16043       141  DOPC      H17S          -30.4175722795        9.9579434619        1.9700446251  MEMB      113             0.0000000000
     16044       141  DOPC      C218          -31.8704622059       11.0380159681        3.0829627066  MEMB      113             0.0000000000
     16045       141  DOPC      H18R          -31.6857472636       10.6447447726        4.1054789387  MEMB      113             0.0000000000
     16046       141  DOPC      H18S          -32.5306015310       10.2819667955        2.6065956693  MEMB      113             0.0000000000
     16047       141  DOPC      H18T          -32.4484221232       11.9867202781        3.0673514615  MEMB      113             0.0000000000
     16048       141  DOPC      C33           -25.8629578492       10.7711407515      -10.7674478829  MEMB      113             0.0000000000
     16049       141  DOPC      H3X           -26.8245050512       11.2926094968      -10.9619174849  MEMB      113             0.0000000000
     16050       141  DOPC      H3Y           -25.0397686452       11.4376105936      -11.1028553307  MEMB      113             0.0000000000
     16051       141  DOPC      C34           -25.7303929050       10.4239187456       -9.3077018380  MEMB      113             0.0000000000
     16052       141  DOPC      H4X           -24.6324813307       10.2647500659       -9.2478976157  MEMB      113             0.0000000000
     16053       141  DOPC      H4Y           -26.2209325291        9.4444602325       -9.1223556931  MEMB      113             0.0000000000
     16054       141  DOPC      C35           -26.2078775919       11.5832219922       -8.3865554066  MEMB      113             0.0000000000
     16055       141  DOPC      H5X           -27.2081369883       11.8338482807       -8.8000634829  MEMB      113             0.0000000000
     16056       141  DOPC      H5Y           -25.5831249731       12.4911933816       -8.5265299843  MEMB      113             0.0000000000
     16057       141  DOPC      C36           -26.1415397221       11.1744281204       -6.9227337938  MEMB      113             0.0000000000
     16058       141  DOPC      H6X           -25.1564972383       10.6823258071       -6.7749255955  MEMB      113             0.0000000000
     16059       141  DOPC      H6Y           -26.1260110156       12.0730162887       -6.2695732048  MEMB      113             0.0000000000
     16060       141  DOPC      C37           -27.2005065954       10.1604068055       -6.4621516865  MEMB      113             0.0000000000
     16061       141  DOPC      H7X           -28.1105927650       10.4026000806       -7.0515636311  MEMB      113             0.0000000000
     16062       141  DOPC      H7Y           -26.9470472218        9.1237149417       -6.7709382043  MEMB      113             0.0000000000
     16063       141  DOPC      C38           -27.4580415930       10.2250713989       -4.9912708441  MEMB      113             0.0000000000
     16064       141  DOPC      H8X           -28.4470297358        9.7318151632       -4.8775955705  MEMB      113             0.0000000000
     16065       141  DOPC      H8Y           -27.6827872617       11.2724076524       -4.6964879532  MEMB      113             0.0000000000
     16066       141  DOPC      C39           -26.4995199451        9.6111430007       -4.0021269098  MEMB      113             0.0000000000
     16067       141  DOPC      H9X           -25.4837494291       10.0313872325       -4.0421886545  MEMB      113             0.0000000000
     16068       141  DOPC      C310          -26.7296601169        8.6208795047       -3.0842817874  MEMB      113             0.0000000000
     16069       141  DOPC      H10X          -25.9005791818        8.2435439938       -2.4676436448  MEMB      113             0.0000000000
     16070       141  DOPC      C311          -28.0414687285        7.9117770436       -2.8954932120  MEMB      113             0.0000000000
     16071       141  DOPC      H11X          -27.9111611101        6.8100668676       -2.8356972606  MEMB      113             0.0000000000
     16072       141  DOPC      H11Y          -28.8484935811        8.0298026230       -3.6498817384  MEMB      113             0.0000000000
     16073       141  DOPC      C312          -28.6201901164        8.4525470969       -1.5112886955  MEMB      113             0.0000000000
     16074       141  DOPC      H12X          -28.7900554125        9.5467490532       -1.6017804675  MEMB      113             0.0000000000
     16075       141  DOPC      H12Y          -27.9010585714        8.2379172893       -0.6920773602  MEMB      113             0.0000000000
     16076       141  DOPC      C313          -29.8839260194        7.6303354175       -1.1464023013  MEMB      113             0.0000000000
     16077       141  DOPC      H13X          -29.9453403263        6.7556937563       -1.8287154740  MEMB      113             0.0000000000
     16078       141  DOPC      H13Y          -29.8519860400        7.2503290405       -0.1029007378  MEMB      113             0.0000000000
     16079       141  DOPC      C314          -31.1316642512        8.5140917116       -1.2548944318  MEMB      113             0.0000000000
     16080       141  DOPC      H14X          -30.9475966530        9.5037442610       -0.7847581303  MEMB      113             0.0000000000
     16081       141  DOPC      H14Y          -31.2970719347        8.7172127302       -2.3345720846  MEMB      113             0.0000000000
     16082       141  DOPC      C315          -32.3220850930        7.9489805030       -0.3815334004  MEMB      113             0.0000000000
     16083       141  DOPC      H15X          -33.0947721563        8.7218014775       -0.5815916967  MEMB      113             0.0000000000
     16084       141  DOPC      H15Y          -32.1179933690        7.9708464642        0.7103419473  MEMB      113             0.0000000000
     16085       141  DOPC      C316          -32.7237990032        6.5005008965       -0.8546431650  MEMB      113             0.0000000000
     16086       141  DOPC      H16X          -31.7776270290        5.9197817758       -0.8975962044  MEMB      113             0.0000000000
     16087       141  DOPC      H16Y          -33.3514211460        6.0013487737       -0.0857105041  MEMB      113             0.0000000000
     16088       141  DOPC      C317          -33.3981166489        6.4252145917       -2.2468279821  MEMB      113             0.0000000000
     16089       141  DOPC      H17X          -32.6645904426        6.6027995040       -3.0621332522  MEMB      113             0.0000000000
     16090       141  DOPC      H17Y          -33.6373782269        5.3424144402       -2.3147879730  MEMB      113             0.0000000000
     16091       141  DOPC      C318          -34.6169715422        7.3200978342       -2.4846788320  MEMB      113             0.0000000000
     16092       141  DOPC      H18X          -35.4054060458        7.1560228655       -1.7193217879  MEMB      113             0.0000000000
     16093       141  DOPC      H18Y          -34.3817642834        8.3969500255       -2.3454362307  MEMB      113             0.0000000000
     16094       141  DOPC      H18Z          -35.2021010138        7.0875458046       -3.4000277579  MEMB      113             0.0000000000
     16095       142  DOPC      N              32.2466954557        1.7765774727      -21.1127954399  MEMB      114             0.0000000000
     16096       142  DOPC      C12            32.1701436591        2.9251336987      -20.0249815039  MEMB      114             0.0000000000
     16097       142  DOPC      H12A           31.5448492855        2.5891748860      -19.2110167658  MEMB      114             0.0000000000
     16098       142  DOPC      H12B           31.7889073699        3.8048046682      -20.5222116751  MEMB      114             0.0000000000
     16099       142  DOPC      C13            33.2473443877        2.0904099991      -22.1714716419  MEMB      114             0.0000000000
     16100       142  DOPC      H13A           34.2851732703        2.0934641911      -21.8726375429  MEMB      114             0.0000000000
     16101       142  DOPC      H13B           33.1687546511        1.3497232333      -22.9535246097  MEMB      114             0.0000000000
     16102       142  DOPC      H13C           32.9782635617        3.1033163626      -22.4322708388  MEMB      114             0.0000000000
     16103       142  DOPC      C14            30.9264732655        1.5376949755      -21.7975102630  MEMB      114             0.0000000000
     16104       142  DOPC      H14A           30.1894073554        1.2520945073      -21.0615982849  MEMB      114             0.0000000000
     16105       142  DOPC      H14B           30.6208446057        2.3615392483      -22.4254206289  MEMB      114             0.0000000000
     16106       142  DOPC      H14C           31.0642989769        0.6628703683      -22.4156413297  MEMB      114             0.0000000000
     16107       142  DOPC      C15            32.6708958083        0.4676117939      -20.4195759760  MEMB      114             0.0000000000
     16108       142  DOPC      H15A           32.5655242866       -0.3277838442      -21.1425160874  MEMB      114             0.0000000000
     16109       142  DOPC      H15B           32.0227805079        0.2418859103      -19.5856727875  MEMB      114             0.0000000000
     16110       142  DOPC      H15C           33.7145211348        0.4902144782      -20.1425646212  MEMB      114             0.0000000000
     16111       142  DOPC      C11            33.4480075352        3.4255638740      -19.3265779069  MEMB      114             0.0000000000
     16112       142  DOPC      H11A           34.3093099448        3.4822670383      -20.0260519442  MEMB      114             0.0000000000
     16113       142  DOPC      H11B           33.1116018023        4.4418149922      -19.0292804149  MEMB      114             0.0000000000
     16114       142  DOPC      P              33.8041386969        3.0388145169      -16.8026032745  MEMB      114             0.0000000000
     16115       142  DOPC      O13            34.6168624345        4.2440676739      -16.4961746108  MEMB      114             0.0000000000
     16116       142  DOPC      O14            34.0320540334        1.8612398076      -15.9726889710  MEMB      114             0.0000000000
     16117       142  DOPC      O12            33.8725881995        2.5981561628      -18.2943039344  MEMB      114             0.0000000000
     16118       142  DOPC      O11            32.2889797273        3.3256360570      -16.5813164747  MEMB      114             0.0000000000
     16119       142  DOPC      C1             31.1863997637        2.3442937761      -16.7590609265  MEMB      114             0.0000000000
     16120       142  DOPC      HA             31.4900668359        1.3524302577      -17.1569479103  MEMB      114             0.0000000000
     16121       142  DOPC      HB             30.4750700051        2.7863584470      -17.4890677136  MEMB      114             0.0000000000
     16122       142  DOPC      C2             30.5437280923        1.9518610482      -15.4036491927  MEMB      114             0.0000000000
     16123       142  DOPC      HS             29.8589596527        2.7728140345      -15.1012435692  MEMB      114             0.0000000000
     16124       142  DOPC      O21            31.5013437059        1.7462078906      -14.3649077327  MEMB      114             0.0000000000
     16125       142  DOPC      C21            31.8261248596        2.6840893549      -13.5248517967  MEMB      114             0.0000000000
     16126       142  DOPC      O22            31.5488565759        3.8888224356      -13.5965948328  MEMB      114             0.0000000000
     16127       142  DOPC      C22            32.6933212815        2.2009957443      -12.4529433371  MEMB      114             0.0000000000
     16128       142  DOPC      H2R            33.0573700308        3.0812311241      -11.8811260646  MEMB      114             0.0000000000
     16129       142  DOPC      H2S            33.5615524749        1.6113490988      -12.8173779620  MEMB      114             0.0000000000
     16130       142  DOPC      C3             29.7068527763        0.6537079267      -15.4239348559  MEMB      114             0.0000000000
     16131       142  DOPC      HX             28.9973650077        0.7689482865      -16.2710877900  MEMB      114             0.0000000000
     16132       142  DOPC      HY             29.1351898412        0.7135882825      -14.4731791085  MEMB      114             0.0000000000
     16133       142  DOPC      O31            30.4327151684       -0.5131626035      -15.6289930273  MEMB      114             0.0000000000
     16134       142  DOPC      C31            30.4079613590       -1.4572614663      -14.7568370375  MEMB      114             0.0000000000
     16135       142  DOPC      O32            29.7758587502       -1.4801774782      -13.6921637657  MEMB      114             0.0000000000
     16136       142  DOPC      C32            31.4395390109       -2.4703043323      -15.1585819150  MEMB      114             0.0000000000
     16137       142  DOPC      H2X            30.9748297569       -3.1518766716      -15.9027765436  MEMB      114             0.0000000000
     16138       142  DOPC      H2Y            32.3716435994       -2.1334663676      -15.6606203055  MEMB      114             0.0000000000
     16139       142  DOPC      C23            31.8029302746        1.4252147762      -11.4621589405  MEMB      114             0.0000000000
     16140       142  DOPC      H3R            32.5330533905        0.8197823594      -10.8836322963  MEMB      114             0.0000000000
     16141       142  DOPC      H3S            31.1798750122        0.6801466607      -12.0015996816  MEMB      114             0.0000000000
     16142       142  DOPC      C24            30.9836985549        2.3352318048      -10.4850753031  MEMB      114             0.0000000000
     16143       142  DOPC      H4R            29.8886931434        2.3182590808      -10.6721481147  MEMB      114             0.0000000000
     16144       142  DOPC      H4S            31.3047138174        3.3725051000      -10.7203084144  MEMB      114             0.0000000000
     16145       142  DOPC      C25            31.0531719626        2.0149221128       -8.9359430780  MEMB      114             0.0000000000
     16146       142  DOPC      H5R            30.6038800326        1.0029620007       -8.8443220363  MEMB      114             0.0000000000
     16147       142  DOPC      H5S            30.4041233941        2.7089252461       -8.3602555798  MEMB      114             0.0000000000
     16148       142  DOPC      C26            32.3905033368        2.2338039597       -8.3883327564  MEMB      114             0.0000000000
     16149       142  DOPC      H6R            32.9381667777        3.1455754133       -8.7093596262  MEMB      114             0.0000000000
     16150       142  DOPC      H6S            33.0731189431        1.4125683740       -8.6948111039  MEMB      114             0.0000000000
     16151       142  DOPC      C27            32.4772854110        2.2534619698       -6.8376415630  MEMB      114             0.0000000000
     16152       142  DOPC      H7R            33.5271721040        2.0403516519       -6.5432893992  MEMB      114             0.0000000000
     16153       142  DOPC      H7S            31.9531820239        1.3536974020       -6.4502656848  MEMB      114             0.0000000000
     16154       142  DOPC      C28            31.8562503724        3.4789283440       -6.1854198392  MEMB      114             0.0000000000
     16155       142  DOPC      H8R            30.7577231669        3.3294304457       -6.1132418189  MEMB      114             0.0000000000
     16156       142  DOPC      H8S            32.1006633145        4.3610739870       -6.8150245449  MEMB      114             0.0000000000
     16157       142  DOPC      C29            32.3162375500        3.5456546252       -4.7708320947  MEMB      114             0.0000000000
     16158       142  DOPC      H9R            33.1363167675        4.2474046231       -4.5586591835  MEMB      114             0.0000000000
     16159       142  DOPC      C210           31.8866539201        2.7500598655       -3.7249103130  MEMB      114             0.0000000000
     16160       142  DOPC      H10R           32.3629250184        2.9902238732       -2.7628878845  MEMB      114             0.0000000000
     16161       142  DOPC      C211           30.8775904213        1.6394209792       -3.7043768803  MEMB      114             0.0000000000
     16162       142  DOPC      H11R           31.2377091479        0.7286821187       -3.1797919280  MEMB      114             0.0000000000
     16163       142  DOPC      H11S           30.7775673582        1.2752493001       -4.7492193727  MEMB      114             0.0000000000
     16164       142  DOPC      C212           29.4504969185        2.0313054888       -3.2390288688  MEMB      114             0.0000000000
     16165       142  DOPC      H12R           28.9113811742        1.0637109097       -3.3252626690  MEMB      114             0.0000000000
     16166       142  DOPC      H12S           29.1276660646        2.7614327643       -4.0116964109  MEMB      114             0.0000000000
     16167       142  DOPC      C213           29.3372231573        2.5611510162       -1.8046385006  MEMB      114             0.0000000000
     16168       142  DOPC      H13R           28.2436849880        2.5690137678       -1.6085935698  MEMB      114             0.0000000000
     16169       142  DOPC      H13S           29.7974470744        3.5700501132       -1.8727403561  MEMB      114             0.0000000000
     16170       142  DOPC      C214           30.0514674180        1.6570730103       -0.8148906912  MEMB      114             0.0000000000
     16171       142  DOPC      H14R           31.0888489218        1.4292721757       -1.1408761359  MEMB      114             0.0000000000
     16172       142  DOPC      H14S           29.3631577940        0.7854463033       -0.8434884989  MEMB      114             0.0000000000
     16173       142  DOPC      C215           30.1817292077        2.2022451986        0.6237275408  MEMB      114             0.0000000000
     16174       142  DOPC      H15R           30.8070490881        3.1193951211        0.5775532722  MEMB      114             0.0000000000
     16175       142  DOPC      H15S           30.7355680569        1.4387043927        1.2107449782  MEMB      114             0.0000000000
     16176       142  DOPC      C216           28.8691842383        2.7071306526        1.2541885906  MEMB      114             0.0000000000
     16177       142  DOPC      H16R           28.7299014263        3.6577653864        0.6963220198  MEMB      114             0.0000000000
     16178       142  DOPC      H16S           29.0337514011        2.9271156716        2.3306861214  MEMB      114             0.0000000000
     16179       142  DOPC      C217           27.6982078864        1.7540516754        1.1645016563  MEMB      114             0.0000000000
     16180       142  DOPC      H17R           27.4671783930        1.4914117157        0.1100028649  MEMB      114             0.0000000000
     16181       142  DOPC      H17S           26.8632437324        2.2428088346        1.7106443733  MEMB      114             0.0000000000
     16182       142  DOPC      C218           27.9602303750        0.3749893955        1.7952857609  MEMB      114             0.0000000000
     16183       142  DOPC      H18R           27.0013333966       -0.1678541618        1.6533038500  MEMB      114             0.0000000000
     16184       142  DOPC      H18S           28.2948624831        0.4539883508        2.8517435623  MEMB      114             0.0000000000
     16185       142  DOPC      H18T           28.7616910279       -0.1178961654        1.2044854903  MEMB      114             0.0000000000
     16186       142  DOPC      C33            31.8830212691       -3.2988846069      -13.8908965250  MEMB      114             0.0000000000
     16187       142  DOPC      H3X            32.6046843411       -4.0821472053      -14.2071602089  MEMB      114             0.0000000000
     16188       142  DOPC      H3Y            31.0452572306       -3.8196743371      -13.3797698283  MEMB      114             0.0000000000
     16189       142  DOPC      C34            32.7579927644       -2.4269973547      -12.9368339446  MEMB      114             0.0000000000
     16190       142  DOPC      H4X            32.2053839453       -1.5072157537      -12.6488302348  MEMB      114             0.0000000000
     16191       142  DOPC      H4Y            33.6470461234       -1.9754790457      -13.4267690162  MEMB      114             0.0000000000
     16192       142  DOPC      C35            33.3632040188       -3.1073607661      -11.6668665901  MEMB      114             0.0000000000
     16193       142  DOPC      H5X            34.1377897513       -2.3452030572      -11.4356669526  MEMB      114             0.0000000000
     16194       142  DOPC      H5Y            33.8249399796       -4.0827777996      -11.9308409120  MEMB      114             0.0000000000
     16195       142  DOPC      C36            32.3725249967       -3.1369457304      -10.4859921989  MEMB      114             0.0000000000
     16196       142  DOPC      H6X            31.3529639912       -2.8852185483      -10.8485519016  MEMB      114             0.0000000000
     16197       142  DOPC      H6Y            32.3747169516       -4.1667842313      -10.0691598656  MEMB      114             0.0000000000
     16198       142  DOPC      C37            32.7405011054       -2.1285060011       -9.4469515509  MEMB      114             0.0000000000
     16199       142  DOPC      H7X            33.7621443510       -2.1633900989       -9.0118083085  MEMB      114             0.0000000000
     16200       142  DOPC      H7Y            32.7311728711       -1.1371385806       -9.9483731825  MEMB      114             0.0000000000
     16201       142  DOPC      C38            31.6976400733       -1.9985874933       -8.2943181078  MEMB      114             0.0000000000
     16202       142  DOPC      H8X            30.7267082355       -1.7828041774       -8.7893433436  MEMB      114             0.0000000000
     16203       142  DOPC      H8Y            31.8418409110       -0.9941242454       -7.8420124524  MEMB      114             0.0000000000
     16204       142  DOPC      C39            31.4585782287       -2.9650959386       -7.1952454208  MEMB      114             0.0000000000
     16205       142  DOPC      H9X            30.5858743668       -3.6213428062       -7.3283928353  MEMB      114             0.0000000000
     16206       142  DOPC      C310           32.2978844829       -2.9621371917       -6.1576684685  MEMB      114             0.0000000000
     16207       142  DOPC      H10X           32.0021695893       -3.6351870387       -5.3394042736  MEMB      114             0.0000000000
     16208       142  DOPC      C311           33.4915990000       -2.0889636348       -5.9132193542  MEMB      114             0.0000000000
     16209       142  DOPC      H11X           33.6462213255       -1.2918708061       -6.6715441274  MEMB      114             0.0000000000
     16210       142  DOPC      H11Y           34.4326326761       -2.6784742393       -5.8778030680  MEMB      114             0.0000000000
     16211       142  DOPC      C312           33.2183393919       -1.2949893290       -4.6312666180  MEMB      114             0.0000000000
     16212       142  DOPC      H12X           32.2316652572       -0.8420853038       -4.3953158046  MEMB      114             0.0000000000
     16213       142  DOPC      H12Y           33.9525172408       -0.4666420779       -4.7268949807  MEMB      114             0.0000000000
     16214       142  DOPC      C313           33.5394982348       -2.2263872318       -3.4166303756  MEMB      114             0.0000000000
     16215       142  DOPC      H13X           33.0744502409       -3.2211657540       -3.5853518085  MEMB      114             0.0000000000
     16216       142  DOPC      H13Y           34.6330590415       -2.4224076608       -3.4119764711  MEMB      114             0.0000000000
     16217       142  DOPC      C314           33.2903140244       -1.6391203141       -2.0323382056  MEMB      114             0.0000000000
     16218       142  DOPC      H14X           32.1994898042       -1.4292371490       -2.0516414000  MEMB      114             0.0000000000
     16219       142  DOPC      H14Y           33.4038250742       -2.4233210755       -1.2535779058  MEMB      114             0.0000000000
     16220       142  DOPC      C315           34.0764349589       -0.4172020897       -1.5140718215  MEMB      114             0.0000000000
     16221       142  DOPC      H15X           33.8258787331        0.4684207714       -2.1363378894  MEMB      114             0.0000000000
     16222       142  DOPC      H15Y           35.1794444942       -0.5034906304       -1.6152902193  MEMB      114             0.0000000000
     16223       142  DOPC      C316           33.6655276028       -0.1306158273        0.0103148708  MEMB      114             0.0000000000
     16224       142  DOPC      H16X           32.5748382056        0.0682164833        0.0823109765  MEMB      114             0.0000000000
     16225       142  DOPC      H16Y           33.9109785496       -1.1110983005        0.4715413744  MEMB      114             0.0000000000
     16226       142  DOPC      C317           34.3353823254        1.0442286611        0.6706525478  MEMB      114             0.0000000000
     16227       142  DOPC      H17X           34.0922507603        0.8454193570        1.7363364993  MEMB      114             0.0000000000
     16228       142  DOPC      H17Y           35.4438089583        1.0004313100        0.6090614083  MEMB      114             0.0000000000
     16229       142  DOPC      C318           33.9679217755        2.4426163942        0.1549103030  MEMB      114             0.0000000000
     16230       142  DOPC      H18X           33.8154947605        2.4578330386       -0.9454778302  MEMB      114             0.0000000000
     16231       142  DOPC      H18Y           32.9289067018        2.7399431466        0.4125253496  MEMB      114             0.0000000000
     16232       142  DOPC      H18Z           34.7237705448        3.2241191260        0.3835298538  MEMB      114             0.0000000000
     16233       143  DOPC      N              36.4959785103       -6.8285222524      -17.8942966602  MEMB      115             0.0000000000
     16234       143  DOPC      C12            35.5956558815       -7.8255916818      -18.4875217066  MEMB      115             0.0000000000
     16235       143  DOPC      H12A           34.7546686126       -7.9467667844      -17.8208455609  MEMB      115             0.0000000000
     16236       143  DOPC      H12B           36.1832491829       -8.7015835813      -18.7194098721  MEMB      115             0.0000000000
     16237       143  DOPC      C13            37.7495247199       -6.4411540565      -18.7407787654  MEMB      115             0.0000000000
     16238       143  DOPC      H13A           38.4923819600       -7.2106592276      -18.5910294670  MEMB      115             0.0000000000
     16239       143  DOPC      H13B           37.4692854122       -6.0895473956      -19.7227353388  MEMB      115             0.0000000000
     16240       143  DOPC      H13C           38.1072993533       -5.5820428247      -18.1927592403  MEMB      115             0.0000000000
     16241       143  DOPC      C14            36.9765763821       -7.4905749407      -16.6156888691  MEMB      115             0.0000000000
     16242       143  DOPC      H14A           36.1069443294       -7.8689086681      -16.0989647287  MEMB      115             0.0000000000
     16243       143  DOPC      H14B           37.5668531258       -8.2988854771      -17.0214069584  MEMB      115             0.0000000000
     16244       143  DOPC      H14C           37.5701194181       -6.9587567598      -15.8868017775  MEMB      115             0.0000000000
     16245       143  DOPC      C15            35.7551564213       -5.5865260105      -17.6001643699  MEMB      115             0.0000000000
     16246       143  DOPC      H15A           34.7919684507       -5.8473293813      -17.1870656535  MEMB      115             0.0000000000
     16247       143  DOPC      H15B           35.6183771077       -4.9200300843      -18.4388982493  MEMB      115             0.0000000000
     16248       143  DOPC      H15C           36.1893711107       -5.0501792884      -16.7693877500  MEMB      115             0.0000000000
     16249       143  DOPC      C11            35.0352173199       -7.3927998050      -19.8790810925  MEMB      115             0.0000000000
     16250       143  DOPC      H11A           35.8015353614       -7.0274895866      -20.5957582239  MEMB      115             0.0000000000
     16251       143  DOPC      H11B           34.5431060103       -8.3121082137      -20.2625122727  MEMB      115             0.0000000000
     16252       143  DOPC      P              32.4770320193       -6.6723051207      -20.0054563308  MEMB      115             0.0000000000
     16253       143  DOPC      O13            32.3370625383       -7.6066473882      -21.1581367026  MEMB      115             0.0000000000
     16254       143  DOPC      O14            31.8564312839       -5.3720303896      -20.2134354137  MEMB      115             0.0000000000
     16255       143  DOPC      O12            34.0358798149       -6.3428632549      -19.8030245481  MEMB      115             0.0000000000
     16256       143  DOPC      O11            32.0703540370       -7.1339991391      -18.6024155394  MEMB      115             0.0000000000
     16257       143  DOPC      C1             30.8530939345       -6.8737761620      -17.9449950653  MEMB      115             0.0000000000
     16258       143  DOPC      HA             30.1394248251       -7.6090422240      -18.3743918912  MEMB      115             0.0000000000
     16259       143  DOPC      HB             30.4768960773       -5.8365369275      -18.0751132334  MEMB      115             0.0000000000
     16260       143  DOPC      C2             31.0031037201       -7.2773929912      -16.4632217715  MEMB      115             0.0000000000
     16261       143  DOPC      HS             30.0608768933       -7.1960132375      -15.8802062171  MEMB      115             0.0000000000
     16262       143  DOPC      O21            32.0406347633       -6.4004183461      -15.9798117383  MEMB      115             0.0000000000
     16263       143  DOPC      C21            31.9300783290       -6.0069285991      -14.6954413058  MEMB      115             0.0000000000
     16264       143  DOPC      O22            30.9982991676       -6.2288551241      -13.9511794354  MEMB      115             0.0000000000
     16265       143  DOPC      C22            33.0876327488       -5.0217098012      -14.4404848685  MEMB      115             0.0000000000
     16266       143  DOPC      H2R            32.8058755278       -4.1073222011      -15.0051340962  MEMB      115             0.0000000000
     16267       143  DOPC      H2S            34.0690254126       -5.3628372466      -14.8339585319  MEMB      115             0.0000000000
     16268       143  DOPC      C3             31.2998799267       -8.7657178086      -16.3837126731  MEMB      115             0.0000000000
     16269       143  DOPC      HX             31.8700343907       -9.0684575589      -17.2879214981  MEMB      115             0.0000000000
     16270       143  DOPC      HY             30.4317753773       -9.4589858295      -16.3934443512  MEMB      115             0.0000000000
     16271       143  DOPC      O31            32.1215978401       -9.0468603576      -15.2350540284  MEMB      115             0.0000000000
     16272       143  DOPC      C31            31.6023940162       -9.6204199508      -14.1876407922  MEMB      115             0.0000000000
     16273       143  DOPC      O32            30.4970972978      -10.0131101407      -13.9953164278  MEMB      115             0.0000000000
     16274       143  DOPC      C32            32.7528729243       -9.5899213184      -13.1497924988  MEMB      115             0.0000000000
     16275       143  DOPC      H2X            33.3996878675      -10.4674140948      -13.3641705487  MEMB      115             0.0000000000
     16276       143  DOPC      H2Y            33.4090534140       -8.7239752309      -13.3819250998  MEMB      115             0.0000000000
     16277       143  DOPC      C23            33.0545436366       -4.5770663812      -12.9209445099  MEMB      115             0.0000000000
     16278       143  DOPC      H3R            32.0522459485       -4.3096169526      -12.5232120729  MEMB      115             0.0000000000
     16279       143  DOPC      H3S            33.7219833083       -3.6916622014      -12.8509127196  MEMB      115             0.0000000000
     16280       143  DOPC      C24            33.5421713295       -5.6779079899      -11.9865028312  MEMB      115             0.0000000000
     16281       143  DOPC      H4R            34.6028317915       -5.9172696297      -12.2145955275  MEMB      115             0.0000000000
     16282       143  DOPC      H4S            32.9450059805       -6.6049187886      -12.1220225299  MEMB      115             0.0000000000
     16283       143  DOPC      C25            33.5126205489       -5.1498582108      -10.5082765595  MEMB      115             0.0000000000
     16284       143  DOPC      H5R            33.2404626614       -6.0736572614       -9.9543407611  MEMB      115             0.0000000000
     16285       143  DOPC      H5S            32.6904525095       -4.4091883208      -10.6071165351  MEMB      115             0.0000000000
     16286       143  DOPC      C26            34.8379676250       -4.6000676252      -10.0274184445  MEMB      115             0.0000000000
     16287       143  DOPC      H6R            35.1896434831       -3.8907936839      -10.8068904494  MEMB      115             0.0000000000
     16288       143  DOPC      H6S            35.5823048286       -5.4193360443       -9.9321188758  MEMB      115             0.0000000000
     16289       143  DOPC      C27            34.7360573399       -3.8644174598       -8.6069639058  MEMB      115             0.0000000000
     16290       143  DOPC      H7R            34.0200135202       -3.0259439406       -8.4707133974  MEMB      115             0.0000000000
     16291       143  DOPC      H7S            35.7465243950       -3.4119563777       -8.5144639304  MEMB      115             0.0000000000
     16292       143  DOPC      C28            34.2359897476       -4.7581886957       -7.4198357715  MEMB      115             0.0000000000
     16293       143  DOPC      H8R            34.4184653270       -4.0046855534       -6.6240612036  MEMB      115             0.0000000000
     16294       143  DOPC      H8S            35.0781223041       -5.4805924124       -7.3626813740  MEMB      115             0.0000000000
     16295       143  DOPC      C29            32.8017201199       -5.2912688590       -7.2428694496  MEMB      115             0.0000000000
     16296       143  DOPC      H9R            32.2923632649       -5.4392700593       -8.2065352723  MEMB      115             0.0000000000
     16297       143  DOPC      C210           32.1570054002       -5.5853391150       -6.1836336300  MEMB      115             0.0000000000
     16298       143  DOPC      H10R           31.1470958648       -6.0197197839       -6.2210002817  MEMB      115             0.0000000000
     16299       143  DOPC      C211           32.6825261004       -5.3719539970       -4.7944678683  MEMB      115             0.0000000000
     16300       143  DOPC      H11R           31.8631351014       -5.4243678785       -4.0460213844  MEMB      115             0.0000000000
     16301       143  DOPC      H11S           33.2507611395       -4.4194135950       -4.7304631562  MEMB      115             0.0000000000
     16302       143  DOPC      C212           33.6948983064       -6.3876745479       -4.2272305651  MEMB      115             0.0000000000
     16303       143  DOPC      H12R           34.4626193027       -6.6434696353       -4.9884760588  MEMB      115             0.0000000000
     16304       143  DOPC      H12S           33.1885737024       -7.3700823895       -4.1139542404  MEMB      115             0.0000000000
     16305       143  DOPC      C213           34.3225864663       -6.0564218152       -2.9056485732  MEMB      115             0.0000000000
     16306       143  DOPC      H13R           34.8483287648       -5.0803054876       -2.9771536148  MEMB      115             0.0000000000
     16307       143  DOPC      H13S           35.0613573493       -6.8299774303       -2.6053976331  MEMB      115             0.0000000000
     16308       143  DOPC      C214           33.4044001047       -6.0800735484       -1.5878651421  MEMB      115             0.0000000000
     16309       143  DOPC      H14R           32.5276341803       -5.4537884419       -1.8587342820  MEMB      115             0.0000000000
     16310       143  DOPC      H14S           34.0673465907       -5.6105919605       -0.8299669457  MEMB      115             0.0000000000
     16311       143  DOPC      C215           33.0946674876       -7.4827086939       -1.0507659511  MEMB      115             0.0000000000
     16312       143  DOPC      H15R           34.0861161139       -7.9840448333       -1.0471701414  MEMB      115             0.0000000000
     16313       143  DOPC      H15S           32.4840759556       -7.9199013392       -1.8695220717  MEMB      115             0.0000000000
     16314       143  DOPC      C216           32.3615678633       -7.5062653913        0.2893805693  MEMB      115             0.0000000000
     16315       143  DOPC      H16R           33.0540234416       -7.0892104661        1.0515431480  MEMB      115             0.0000000000
     16316       143  DOPC      H16S           32.2703332565       -8.5685040299        0.6018636889  MEMB      115             0.0000000000
     16317       143  DOPC      C217           31.1272893578       -6.6985069672        0.3842148904  MEMB      115             0.0000000000
     16318       143  DOPC      H17R           31.3742508606       -5.6167634340        0.3279780392  MEMB      115             0.0000000000
     16319       143  DOPC      H17S           30.7155831318       -6.8248840140        1.4083467950  MEMB      115             0.0000000000
     16320       143  DOPC      C218           30.1063693599       -6.9384993908       -0.6131635645  MEMB      115             0.0000000000
     16321       143  DOPC      H18R           29.3850574539       -6.1022352136       -0.7343766126  MEMB      115             0.0000000000
     16322       143  DOPC      H18S           29.5036827150       -7.8623097664       -0.4802587334  MEMB      115             0.0000000000
     16323       143  DOPC      H18T           30.6134532865       -7.1361273740       -1.5817361538  MEMB      115             0.0000000000
     16324       143  DOPC      C33            32.2537862672       -9.5753293854      -11.6763096082  MEMB      115             0.0000000000
     16325       143  DOPC      H3X            31.5970776425      -10.4537609586      -11.4990739966  MEMB      115             0.0000000000
     16326       143  DOPC      H3Y            31.5493196385       -8.7163007361      -11.6654683382  MEMB      115             0.0000000000
     16327       143  DOPC      C34            33.3998452307       -9.3400817630      -10.6983737320  MEMB      115             0.0000000000
     16328       143  DOPC      H4X            34.0268035419       -8.5625436631      -11.1848703121  MEMB      115             0.0000000000
     16329       143  DOPC      H4Y            34.0171976084      -10.2601240473      -10.6164045841  MEMB      115             0.0000000000
     16330       143  DOPC      C35            33.0274610866       -8.8445521460       -9.2672158801  MEMB      115             0.0000000000
     16331       143  DOPC      H5X            32.6067321343       -7.8285643098       -9.4255718528  MEMB      115             0.0000000000
     16332       143  DOPC      H5Y            33.8575745472       -8.7749275102       -8.5321067743  MEMB      115             0.0000000000
     16333       143  DOPC      C36            31.9620655848       -9.7546082554       -8.7456401545  MEMB      115             0.0000000000
     16334       143  DOPC      H6X            31.1553422289      -10.0543788524       -9.4482463993  MEMB      115             0.0000000000
     16335       143  DOPC      H6Y            32.3871547233      -10.7552941382       -8.5170617997  MEMB      115             0.0000000000
     16336       143  DOPC      C37            31.2097748331       -9.0999142049       -7.5003365621  MEMB      115             0.0000000000
     16337       143  DOPC      H7X            31.8335225857       -9.2842721749       -6.5996296102  MEMB      115             0.0000000000
     16338       143  DOPC      H7Y            31.0059766567       -8.0108900062       -7.5828798729  MEMB      115             0.0000000000
     16339       143  DOPC      C38            29.7782125055       -9.6189895684       -7.1870012016  MEMB      115             0.0000000000
     16340       143  DOPC      H8X            29.1372631680       -9.5381934176       -8.0908693879  MEMB      115             0.0000000000
     16341       143  DOPC      H8Y            29.4148480224       -8.9251958408       -6.3990055935  MEMB      115             0.0000000000
     16342       143  DOPC      C39            29.7101521056      -10.9682590688       -6.5905790704  MEMB      115             0.0000000000
     16343       143  DOPC      H9X            29.9340382356      -11.7303101682       -7.3516004602  MEMB      115             0.0000000000
     16344       143  DOPC      C310           29.5674436056      -11.2600684553       -5.2890953928  MEMB      115             0.0000000000
     16345       143  DOPC      H10X           29.3979445779      -12.3025944350       -4.9818340128  MEMB      115             0.0000000000
     16346       143  DOPC      C311           29.4030722262      -10.2555842022       -4.1607797122  MEMB      115             0.0000000000
     16347       143  DOPC      H11X           28.4598411505      -10.4515126738       -3.6073821604  MEMB      115             0.0000000000
     16348       143  DOPC      H11Y           29.2836687476       -9.1972159487       -4.4768807863  MEMB      115             0.0000000000
     16349       143  DOPC      C312           30.6319940090      -10.0988169823       -3.1445919149  MEMB      115             0.0000000000
     16350       143  DOPC      H12X           30.3910793384       -9.2755618874       -2.4385231202  MEMB      115             0.0000000000
     16351       143  DOPC      H12Y           31.4993858503       -9.8481005739       -3.7919660412  MEMB      115             0.0000000000
     16352       143  DOPC      C313           30.8414639612      -11.2986964053       -2.2220737533  MEMB      115             0.0000000000
     16353       143  DOPC      H13X           30.0359483796      -11.3598136343       -1.4593621754  MEMB      115             0.0000000000
     16354       143  DOPC      H13Y           30.9422360032      -12.2455788125       -2.7944195748  MEMB      115             0.0000000000
     16355       143  DOPC      C314           32.1778662684      -11.2097891609       -1.4282373780  MEMB      115             0.0000000000
     16356       143  DOPC      H14X           33.0968127522      -11.3164342989       -2.0434495914  MEMB      115             0.0000000000
     16357       143  DOPC      H14Y           32.2960154514      -10.2794121324       -0.8326194070  MEMB      115             0.0000000000
     16358       143  DOPC      C315           32.2376465170      -12.2667068463       -0.2125500710  MEMB      115             0.0000000000
     16359       143  DOPC      H15X           32.1176436961      -13.2787043129       -0.6550217173  MEMB      115             0.0000000000
     16360       143  DOPC      H15Y           31.3503849550      -12.1213529739        0.4401076391  MEMB      115             0.0000000000
     16361       143  DOPC      C316           33.6916508231      -12.4131609017        0.5130908360  MEMB      115             0.0000000000
     16362       143  DOPC      H16X           33.5326935626      -13.2728799547        1.1986096038  MEMB      115             0.0000000000
     16363       143  DOPC      H16Y           34.4651888573      -12.6914437561       -0.2342500282  MEMB      115             0.0000000000
     16364       143  DOPC      C317           33.9675485919      -11.1478838045        1.3299220958  MEMB      115             0.0000000000
     16365       143  DOPC      H17X           35.0056353507      -11.2415402608        1.7145330951  MEMB      115             0.0000000000
     16366       143  DOPC      H17Y           34.0512346159      -10.2933432700        0.6248860081  MEMB      115             0.0000000000
     16367       143  DOPC      C318           32.9975237599      -10.9347008363        2.4383130606  MEMB      115             0.0000000000
     16368       143  DOPC      H18X           33.1412756560      -11.7759757935        3.1495883570  MEMB      115             0.0000000000
     16369       143  DOPC      H18Y           33.2476577185       -9.9595063662        2.9081527752  MEMB      115             0.0000000000
     16370       143  DOPC      H18Z           31.9263403922      -11.0069969870        2.1525500619  MEMB      115             0.0000000000
     16371       144  DOPC      N              11.3847161126      -34.5181575664      -19.4828167351  MEMB      116             0.0000000000
     16372       144  DOPC      C12            12.7715971476      -34.8940250513      -19.8478027895  MEMB      116             0.0000000000
     16373       144  DOPC      H12A           12.9732843235      -34.6569230126      -20.8819715133  MEMB      116             0.0000000000
     16374       144  DOPC      H12B           12.8323980472      -35.9660477985      -19.7317401921  MEMB      116             0.0000000000
     16375       144  DOPC      C13            11.1006425211      -34.4206797164      -17.9725119400  MEMB      116             0.0000000000
     16376       144  DOPC      H13A           11.6730851844      -33.6629385259      -17.4581795911  MEMB      116             0.0000000000
     16377       144  DOPC      H13B           10.0248598993      -34.3630391250      -17.8965572486  MEMB      116             0.0000000000
     16378       144  DOPC      H13C           11.3189290716      -35.2792378888      -17.3547510306  MEMB      116             0.0000000000
     16379       144  DOPC      C14            10.4668889432      -35.4600616157      -20.1073332315  MEMB      116             0.0000000000
     16380       144  DOPC      H14A           10.2943698539      -36.3805352832      -19.5694062457  MEMB      116             0.0000000000
     16381       144  DOPC      H14B            9.5107688953      -34.9696138031      -19.9991883551  MEMB      116             0.0000000000
     16382       144  DOPC      H14C           10.7205281438      -35.6015151986      -21.1475534056  MEMB      116             0.0000000000
     16383       144  DOPC      C15            11.1551984688      -33.0896401383      -20.0558536531  MEMB      116             0.0000000000
     16384       144  DOPC      H15A           11.7474084130      -32.3286361475      -19.5694789312  MEMB      116             0.0000000000
     16385       144  DOPC      H15B           10.1100594532      -32.8186303894      -20.0305935431  MEMB      116             0.0000000000
     16386       144  DOPC      H15C           11.2271502732      -33.1621314257      -21.1310131268  MEMB      116             0.0000000000
     16387       144  DOPC      C11            13.9395181621      -34.2132778677      -19.0989524550  MEMB      116             0.0000000000
     16388       144  DOPC      H11A           13.8244264693      -34.4384330693      -18.0171114209  MEMB      116             0.0000000000
     16389       144  DOPC      H11B           14.8638139542      -34.5439156575      -19.6192186406  MEMB      116             0.0000000000
     16390       144  DOPC      P              14.8531212691      -31.8398816090      -18.4977511517  MEMB      116             0.0000000000
     16391       144  DOPC      O13            14.8976838129      -30.6378374655      -19.3265482001  MEMB      116             0.0000000000
     16392       144  DOPC      O14            16.1200010621      -32.5999679535      -18.3501008650  MEMB      116             0.0000000000
     16393       144  DOPC      O12            13.7871913540      -32.7753264845      -19.1801064950  MEMB      116             0.0000000000
     16394       144  DOPC      O11            14.3348870431      -31.3498580357      -17.0802224798  MEMB      116             0.0000000000
     16395       144  DOPC      C1             13.0869276213      -30.5941232535      -17.1428775385  MEMB      116             0.0000000000
     16396       144  DOPC      HA             12.3858520529      -31.0594279249      -17.8683467037  MEMB      116             0.0000000000
     16397       144  DOPC      HB             13.3380956585      -29.5466378647      -17.4149252408  MEMB      116             0.0000000000
     16398       144  DOPC      C2             12.4179145743      -30.3968019527      -15.7615446929  MEMB      116             0.0000000000
     16399       144  DOPC      HS             11.5427481978      -29.7134065364      -15.7986339960  MEMB      116             0.0000000000
     16400       144  DOPC      O21            13.3156631400      -30.0444913088      -14.6091573788  MEMB      116             0.0000000000
     16401       144  DOPC      C21            13.7357154584      -28.8573946085      -14.6614181952  MEMB      116             0.0000000000
     16402       144  DOPC      O22            13.4729801892      -28.0547055213      -15.5412502497  MEMB      116             0.0000000000
     16403       144  DOPC      C22            14.6287594519      -28.4823294416      -13.5283581627  MEMB      116             0.0000000000
     16404       144  DOPC      H2R            14.3657614342      -27.4632265939      -13.1725741568  MEMB      116             0.0000000000
     16405       144  DOPC      H2S            15.6917196937      -28.5845361596      -13.8349360047  MEMB      116             0.0000000000
     16406       144  DOPC      C3             11.7965834064      -31.7294667495      -15.2790152147  MEMB      116             0.0000000000
     16407       144  DOPC      HX             11.0238330373      -32.0206313287      -16.0222519724  MEMB      116             0.0000000000
     16408       144  DOPC      HY             11.2675623882      -31.5583705740      -14.3171503922  MEMB      116             0.0000000000
     16409       144  DOPC      O31            12.7774701707      -32.7515522584      -15.1926740017  MEMB      116             0.0000000000
     16410       144  DOPC      C31            12.3555324553      -33.9362725019      -14.9692891382  MEMB      116             0.0000000000
     16411       144  DOPC      O32            11.2002637968      -34.3672206690      -14.9606839885  MEMB      116             0.0000000000
     16412       144  DOPC      C32            13.5903416649      -34.7830922983      -14.7789289824  MEMB      116             0.0000000000
     16413       144  DOPC      H2X            13.3821645821      -35.8658469883      -14.9154050070  MEMB      116             0.0000000000
     16414       144  DOPC      H2Y            14.3687596206      -34.4482675152      -15.4974541069  MEMB      116             0.0000000000
     16415       144  DOPC      C23            14.3607932676      -29.2924439384      -12.2340016463  MEMB      116             0.0000000000
     16416       144  DOPC      H3R            13.3617040641      -29.1052675208      -11.7855519974  MEMB      116             0.0000000000
     16417       144  DOPC      H3S            15.1364977057      -28.9126700113      -11.5351631932  MEMB      116             0.0000000000
     16418       144  DOPC      C24            14.6337050867      -30.8484428969      -12.2746203234  MEMB      116             0.0000000000
     16419       144  DOPC      H4R            15.3672605784      -30.9850056644      -13.0977654914  MEMB      116             0.0000000000
     16420       144  DOPC      H4S            13.6988385923      -31.3487783803      -12.6062980782  MEMB      116             0.0000000000
     16421       144  DOPC      C25            15.2633489975      -31.5373587365      -11.0451210136  MEMB      116             0.0000000000
     16422       144  DOPC      H5R            16.2377178900      -31.0445340154      -10.8400594469  MEMB      116             0.0000000000
     16423       144  DOPC      H5S            15.6451636184      -32.5689764668      -11.2010177916  MEMB      116             0.0000000000
     16424       144  DOPC      C26            14.5111940579      -31.2635147802       -9.7898227712  MEMB      116             0.0000000000
     16425       144  DOPC      H6R            14.6232833142      -30.1750810473       -9.5972889565  MEMB      116             0.0000000000
     16426       144  DOPC      H6S            14.9447340845      -31.9017661548       -8.9904478527  MEMB      116             0.0000000000
     16427       144  DOPC      C27            12.9811621947      -31.5843444001       -9.7916042463  MEMB      116             0.0000000000
     16428       144  DOPC      H7R            12.7367766160      -32.6647125081       -9.8776365698  MEMB      116             0.0000000000
     16429       144  DOPC      H7S            12.4259178377      -30.9997281441      -10.5559662498  MEMB      116             0.0000000000
     16430       144  DOPC      C28            12.1857698537      -31.1979314592       -8.5045910629  MEMB      116             0.0000000000
     16431       144  DOPC      H8R            11.1484388808      -31.4698216616       -8.7950062338  MEMB      116             0.0000000000
     16432       144  DOPC      H8S            12.3292268209      -30.1169845847       -8.2917652356  MEMB      116             0.0000000000
     16433       144  DOPC      C29            12.6818042755      -32.1752441093       -7.4098108220  MEMB      116             0.0000000000
     16434       144  DOPC      H9R            12.6213782572      -33.2185684199       -7.7530646586  MEMB      116             0.0000000000
     16435       144  DOPC      C210           13.3036918450      -31.7882256469       -6.2270584274  MEMB      116             0.0000000000
     16436       144  DOPC      H10R           13.7499007051      -32.5822606070       -5.6102884158  MEMB      116             0.0000000000
     16437       144  DOPC      C211           13.5508300018      -30.3862253547       -5.7538818151  MEMB      116             0.0000000000
     16438       144  DOPC      H11R           12.5542690602      -29.9115169149       -5.8797352029  MEMB      116             0.0000000000
     16439       144  DOPC      H11S           14.3323774708      -29.8998721550       -6.3759466444  MEMB      116             0.0000000000
     16440       144  DOPC      C212           14.0177220577      -30.1633158426       -4.3069437890  MEMB      116             0.0000000000
     16441       144  DOPC      H12R           13.9614830217      -29.0931876972       -4.0137144807  MEMB      116             0.0000000000
     16442       144  DOPC      H12S           15.0827616692      -30.4577031138       -4.1914115037  MEMB      116             0.0000000000
     16443       144  DOPC      C213           13.2161319948      -30.9020809347       -3.2459847271  MEMB      116             0.0000000000
     16444       144  DOPC      H13R           13.1451589391      -31.9755790928       -3.5232675443  MEMB      116             0.0000000000
     16445       144  DOPC      H13S           12.1628463194      -30.5533005643       -3.1888665532  MEMB      116             0.0000000000
     16446       144  DOPC      C214           13.8998721592      -30.6595813265       -1.9315657523  MEMB      116             0.0000000000
     16447       144  DOPC      H14R           13.6870736250      -29.6163684076       -1.6141628677  MEMB      116             0.0000000000
     16448       144  DOPC      H14S           14.9995650353      -30.8150079121       -1.9025975517  MEMB      116             0.0000000000
     16449       144  DOPC      C215           13.4397522111      -31.5435421386       -0.7260610076  MEMB      116             0.0000000000
     16450       144  DOPC      H15R           13.7791292049      -32.5935781463       -0.8547808432  MEMB      116             0.0000000000
     16451       144  DOPC      H15S           12.3562376376      -31.3360597976       -0.5946515258  MEMB      116             0.0000000000
     16452       144  DOPC      C216           13.8586372622      -30.8546164953        0.6098675851  MEMB      116             0.0000000000
     16453       144  DOPC      H16R           13.3190172700      -29.8862353429        0.5365929194  MEMB      116             0.0000000000
     16454       144  DOPC      H16S           14.9453246631      -30.6269181129        0.6496824280  MEMB      116             0.0000000000
     16455       144  DOPC      C217           13.4327935151      -31.6248457370        1.8300064237  MEMB      116             0.0000000000
     16456       144  DOPC      H17R           13.6973025421      -32.6975783240        1.7133842921  MEMB      116             0.0000000000
     16457       144  DOPC      H17S           12.3264499268      -31.5235940343        1.8385448377  MEMB      116             0.0000000000
     16458       144  DOPC      C218           13.7722391165      -30.9984802436        3.2829665939  MEMB      116             0.0000000000
     16459       144  DOPC      H18R           13.6490309699      -31.8641727104        3.9683260335  MEMB      116             0.0000000000
     16460       144  DOPC      H18S           13.0889118366      -30.1609157308        3.5396195310  MEMB      116             0.0000000000
     16461       144  DOPC      H18T           14.7996594132      -30.5760086778        3.2672615911  MEMB      116             0.0000000000
     16462       144  DOPC      C33            14.1770076017      -34.5840275057      -13.3379235700  MEMB      116             0.0000000000
     16463       144  DOPC      H3X            14.4333533228      -33.5268038856      -13.1123437057  MEMB      116             0.0000000000
     16464       144  DOPC      H3Y            15.1500187203      -35.1193796078      -13.3068002831  MEMB      116             0.0000000000
     16465       144  DOPC      C34            13.3431790149      -35.1706177052      -12.2262027726  MEMB      116             0.0000000000
     16466       144  DOPC      H4X            12.9963006157      -36.1944046465      -12.4828279996  MEMB      116             0.0000000000
     16467       144  DOPC      H4Y            12.4030773982      -34.5785666153      -12.2285482844  MEMB      116             0.0000000000
     16468       144  DOPC      C35            13.9063906129      -35.2766112289      -10.8576740773  MEMB      116             0.0000000000
     16469       144  DOPC      H5X            14.2473406322      -34.2621297443      -10.5595101743  MEMB      116             0.0000000000
     16470       144  DOPC      H5Y            14.8376021783      -35.8825521911      -10.8588868181  MEMB      116             0.0000000000
     16471       144  DOPC      C36            12.9355202848      -35.8316049594       -9.8155604228  MEMB      116             0.0000000000
     16472       144  DOPC      H6X            12.0611557313      -35.1483943645       -9.7605053783  MEMB      116             0.0000000000
     16473       144  DOPC      H6Y            12.5362797430      -36.8062297915      -10.1691625411  MEMB      116             0.0000000000
     16474       144  DOPC      C37            13.4669111988      -36.1445367503       -8.3756244402  MEMB      116             0.0000000000
     16475       144  DOPC      H7X            14.5239749493      -36.4704582925       -8.4791236596  MEMB      116             0.0000000000
     16476       144  DOPC      H7Y            13.3857381994      -35.2505108502       -7.7210632293  MEMB      116             0.0000000000
     16477       144  DOPC      C38            12.7288463736      -37.2314778574       -7.6209944136  MEMB      116             0.0000000000
     16478       144  DOPC      H8X            13.1342529347      -37.3806338876       -6.5974135148  MEMB      116             0.0000000000
     16479       144  DOPC      H8Y            12.8116828970      -38.1772287279       -8.1980690693  MEMB      116             0.0000000000
     16480       144  DOPC      C39            11.2453963699      -36.9155927525       -7.5847859438  MEMB      116             0.0000000000
     16481       144  DOPC      H9X            10.7635936950      -36.9443868618       -8.5732379670  MEMB      116             0.0000000000
     16482       144  DOPC      C310           10.4806420866      -36.5878296884       -6.4669660245  MEMB      116             0.0000000000
     16483       144  DOPC      H10X            9.3870338060      -36.4966336943       -6.5424938333  MEMB      116             0.0000000000
     16484       144  DOPC      C311           10.9660341631      -36.4929387266       -5.1146078124  MEMB      116             0.0000000000
     16485       144  DOPC      H11X           11.7206567077      -37.2096446759       -4.7257648038  MEMB      116             0.0000000000
     16486       144  DOPC      H11Y           10.1483860645      -36.6821084302       -4.3866052974  MEMB      116             0.0000000000
     16487       144  DOPC      C312           11.4887633221      -35.0686184134       -4.7267697583  MEMB      116             0.0000000000
     16488       144  DOPC      H12X           12.1743484520      -34.6695736951       -5.5046238953  MEMB      116             0.0000000000
     16489       144  DOPC      H12Y           12.1432220496      -35.1989480711       -3.8385022053  MEMB      116             0.0000000000
     16490       144  DOPC      C313           10.3617764565      -34.0803646311       -4.4229297877  MEMB      116             0.0000000000
     16491       144  DOPC      H13X           10.9117938885      -33.1159757616       -4.3810277993  MEMB      116             0.0000000000
     16492       144  DOPC      H13Y            9.5941289390      -34.0809786544       -5.2260719357  MEMB      116             0.0000000000
     16493       144  DOPC      C314            9.7846835488      -34.3328498615       -2.9837303441  MEMB      116             0.0000000000
     16494       144  DOPC      H14X            9.3132880688      -35.3347472690       -2.8925765228  MEMB      116             0.0000000000
     16495       144  DOPC      H14Y           10.5933715010      -34.1358932898       -2.2478272027  MEMB      116             0.0000000000
     16496       144  DOPC      C315            8.6049165852      -33.3476325674       -2.6181889232  MEMB      116             0.0000000000
     16497       144  DOPC      H15X            7.7667042189      -33.5762064447       -3.3106309372  MEMB      116             0.0000000000
     16498       144  DOPC      H15Y            8.9245713296      -32.3016602537       -2.8133400173  MEMB      116             0.0000000000
     16499       144  DOPC      C316            8.0174998299      -33.3192271548       -1.1706625705  MEMB      116             0.0000000000
     16500       144  DOPC      H16X            7.0195479497      -32.8481628743       -1.2991590999  MEMB      116             0.0000000000
     16501       144  DOPC      H16Y            7.7855671019      -34.3393917465       -0.7967745422  MEMB      116             0.0000000000
     16502       144  DOPC      C317            8.8406741638      -32.5067418861       -0.1747585964  MEMB      116             0.0000000000
     16503       144  DOPC      H17X            8.2950988324      -32.5862763162        0.7897844212  MEMB      116             0.0000000000
     16504       144  DOPC      H17Y            9.7827402354      -33.0956642918       -0.1764616763  MEMB      116             0.0000000000
     16505       144  DOPC      C318            8.9383211372      -31.0171731892       -0.3026926269  MEMB      116             0.0000000000
     16506       144  DOPC      H18X            9.4765866134      -30.7907084325       -1.2478404091  MEMB      116             0.0000000000
     16507       144  DOPC      H18Y            7.9490852103      -30.5120587587       -0.3270241685  MEMB      116             0.0000000000
     16508       144  DOPC      H18Z            9.5558133319      -30.6077648992        0.5252025041  MEMB      116             0.0000000000
     16509       145  DOPC      N              30.5995875452       11.5882949945      -20.9660053888  MEMB      117             0.0000000000
     16510       145  DOPC      C12            30.8689443051       12.7337668201      -19.9877244466  MEMB      117             0.0000000000
     16511       145  DOPC      H12A           29.9539132764       12.8935656019      -19.4367411649  MEMB      117             0.0000000000
     16512       145  DOPC      H12B           30.8953514734       13.5638830430      -20.6780937901  MEMB      117             0.0000000000
     16513       145  DOPC      C13            29.4057324884       11.9293451974      -21.7934171463  MEMB      117             0.0000000000
     16514       145  DOPC      H13A           29.5039513459       12.9027158235      -22.2509130616  MEMB      117             0.0000000000
     16515       145  DOPC      H13B           29.1389203855       11.2089996011      -22.5525702726  MEMB      117             0.0000000000
     16516       145  DOPC      H13C           28.5091606177       11.9456322039      -21.1915089060  MEMB      117             0.0000000000
     16517       145  DOPC      C14            30.2453756086       10.3229007331      -20.1952657880  MEMB      117             0.0000000000
     16518       145  DOPC      H14A           30.8526549856       10.2636997657      -19.3041389922  MEMB      117             0.0000000000
     16519       145  DOPC      H14B           29.1777005807       10.3299251298      -20.0327205613  MEMB      117             0.0000000000
     16520       145  DOPC      H14C           30.4804435166        9.4585584008      -20.7986357587  MEMB      117             0.0000000000
     16521       145  DOPC      C15            31.7524876563       11.3216318404      -21.8643264881  MEMB      117             0.0000000000
     16522       145  DOPC      H15A           32.0197608738       12.2913116919      -22.2576279689  MEMB      117             0.0000000000
     16523       145  DOPC      H15B           31.4982020143       10.6897108668      -22.7024282912  MEMB      117             0.0000000000
     16524       145  DOPC      H15C           32.5819731589       10.9232900242      -21.2989260379  MEMB      117             0.0000000000
     16525       145  DOPC      C11            32.1168861750       12.6941672431      -19.1183021767  MEMB      117             0.0000000000
     16526       145  DOPC      H11A           33.0087484471       12.7439044309      -19.7789298121  MEMB      117             0.0000000000
     16527       145  DOPC      H11B           32.2475750660       13.5971829580      -18.4844222450  MEMB      117             0.0000000000
     16528       145  DOPC      P              32.6962182958       11.2334797393      -16.9529362162  MEMB      117             0.0000000000
     16529       145  DOPC      O13            33.2567725237       12.5301659452      -16.4741251370  MEMB      117             0.0000000000
     16530       145  DOPC      O14            33.5614271267       10.0251540597      -17.0265536431  MEMB      117             0.0000000000
     16531       145  DOPC      O12            32.1864365094       11.4665271042      -18.4500091533  MEMB      117             0.0000000000
     16532       145  DOPC      O11            31.3338583674       10.8690124164      -16.1713344143  MEMB      117             0.0000000000
     16533       145  DOPC      C1             30.1492422829       11.6891970212      -16.2338904247  MEMB      117             0.0000000000
     16534       145  DOPC      HA             29.4607976829       11.1602315711      -16.9271152659  MEMB      117             0.0000000000
     16535       145  DOPC      HB             30.3807335963       12.6312179699      -16.7754893833  MEMB      117             0.0000000000
     16536       145  DOPC      C2             29.5646879163       12.0205892613      -14.9009148148  MEMB      117             0.0000000000
     16537       145  DOPC      HS             28.8217566901       12.8436940562      -14.9707198275  MEMB      117             0.0000000000
     16538       145  DOPC      O21            30.5576067940       12.2982931601      -13.8731497531  MEMB      117             0.0000000000
     16539       145  DOPC      C21            30.9630823904       13.5881218348      -13.8950025949  MEMB      117             0.0000000000
     16540       145  DOPC      O22            30.5940142871       14.4586723306      -14.6340887589  MEMB      117             0.0000000000
     16541       145  DOPC      C22            31.7409650220       13.9179956625      -12.5968139115  MEMB      117             0.0000000000
     16542       145  DOPC      H2R            32.5759681964       14.6016057123      -12.8609500179  MEMB      117             0.0000000000
     16543       145  DOPC      H2S            32.2759920541       13.0474111850      -12.1607518661  MEMB      117             0.0000000000
     16544       145  DOPC      C3             28.6912999853       10.8134780414      -14.4167425130  MEMB      117             0.0000000000
     16545       145  DOPC      HX             29.3711151982        9.9428234949      -14.2978607376  MEMB      117             0.0000000000
     16546       145  DOPC      HY             27.9093343385       10.6621541287      -15.1913080139  MEMB      117             0.0000000000
     16547       145  DOPC      O31            28.2248015211       11.0575704884      -13.0979826979  MEMB      117             0.0000000000
     16548       145  DOPC      C31            26.9473018919       11.4647819580      -12.9982497450  MEMB      117             0.0000000000
     16549       145  DOPC      O32            26.0997785994       11.6375036347      -13.8686168992  MEMB      117             0.0000000000
     16550       145  DOPC      C32            26.6033001628       11.5327205727      -11.4982312029  MEMB      117             0.0000000000
     16551       145  DOPC      H2X            27.2670434021       10.7882708029      -11.0087824206  MEMB      117             0.0000000000
     16552       145  DOPC      H2Y            26.8445212646       12.4976760270      -11.0032626162  MEMB      117             0.0000000000
     16553       145  DOPC      C23            30.7297148702       14.6080474958      -11.6455792071  MEMB      117             0.0000000000
     16554       145  DOPC      H3R            30.0604529137       15.3776446136      -12.0861803558  MEMB      117             0.0000000000
     16555       145  DOPC      H3S            31.3397978703       15.1894633214      -10.9216487214  MEMB      117             0.0000000000
     16556       145  DOPC      C24            29.7904728271       13.5870906357      -11.0022174040  MEMB      117             0.0000000000
     16557       145  DOPC      H4R            29.2559051073       13.1818424719      -11.8878426071  MEMB      117             0.0000000000
     16558       145  DOPC      H4S            29.1133700656       14.1518139848      -10.3262439673  MEMB      117             0.0000000000
     16559       145  DOPC      C25            30.4994336527       12.4530542524      -10.3078575731  MEMB      117             0.0000000000
     16560       145  DOPC      H5R            31.0204039376       11.7403000207      -10.9823146824  MEMB      117             0.0000000000
     16561       145  DOPC      H5S            29.6879899894       11.7556067433      -10.0087812006  MEMB      117             0.0000000000
     16562       145  DOPC      C26            31.4966268109       12.7009579999       -9.0903547632  MEMB      117             0.0000000000
     16563       145  DOPC      H6R            32.5259237545       12.8548079259       -9.4791989614  MEMB      117             0.0000000000
     16564       145  DOPC      H6S            31.4432577593       11.7948118947       -8.4497526838  MEMB      117             0.0000000000
     16565       145  DOPC      C27            31.2327311437       13.8588741243       -8.1432739945  MEMB      117             0.0000000000
     16566       145  DOPC      H7R            31.3434781523       14.7969974597       -8.7280648171  MEMB      117             0.0000000000
     16567       145  DOPC      H7S            32.1261009278       13.8535055140       -7.4828327409  MEMB      117             0.0000000000
     16568       145  DOPC      C28            29.8853384251       13.8358894213       -7.3621397138  MEMB      117             0.0000000000
     16569       145  DOPC      H8R            29.8740170641       12.8126655021       -6.9294671764  MEMB      117             0.0000000000
     16570       145  DOPC      H8S            29.1085520615       13.9612221688       -8.1464970797  MEMB      117             0.0000000000
     16571       145  DOPC      C29            29.7693148163       14.8544770405       -6.2684966427  MEMB      117             0.0000000000
     16572       145  DOPC      H9R            30.0868610593       15.8761473166       -6.5241419633  MEMB      117             0.0000000000
     16573       145  DOPC      C210           29.2843680681       14.6487709260       -5.0044643934  MEMB      117             0.0000000000
     16574       145  DOPC      H10R           29.4546298080       15.4368688715       -4.2561914859  MEMB      117             0.0000000000
     16575       145  DOPC      C211           28.7495358156       13.4019544043       -4.3842495802  MEMB      117             0.0000000000
     16576       145  DOPC      H11R           29.2265149487       13.3060961982       -3.3854384142  MEMB      117             0.0000000000
     16577       145  DOPC      H11S           29.0509946214       12.5243788920       -4.9952357277  MEMB      117             0.0000000000
     16578       145  DOPC      C212           27.2854680465       13.3664176320       -4.0361966829  MEMB      117             0.0000000000
     16579       145  DOPC      H12R           26.6351504952       13.3979144725       -4.9364272252  MEMB      117             0.0000000000
     16580       145  DOPC      H12S           26.9208641701       14.2109180711       -3.4131364256  MEMB      117             0.0000000000
     16581       145  DOPC      C213           26.8986377369       12.0786536369       -3.2905544285  MEMB      117             0.0000000000
     16582       145  DOPC      H13R           27.1135438001       11.2042079034       -3.9413094061  MEMB      117             0.0000000000
     16583       145  DOPC      H13S           25.7931052421       12.1335528598       -3.3859721228  MEMB      117             0.0000000000
     16584       145  DOPC      C214           27.5234483539       11.9229076487       -1.8673128257  MEMB      117             0.0000000000
     16585       145  DOPC      H14R           27.4336930148       12.9085484728       -1.3625580612  MEMB      117             0.0000000000
     16586       145  DOPC      H14S           28.5928563255       11.6396643212       -1.9695891805  MEMB      117             0.0000000000
     16587       145  DOPC      C215           26.9012519975       10.8824481916       -0.8976806912  MEMB      117             0.0000000000
     16588       145  DOPC      H15R           27.0321125589        9.8633946501       -1.3204418405  MEMB      117             0.0000000000
     16589       145  DOPC      H15S           25.8133500770       11.0913741295       -0.8131774563  MEMB      117             0.0000000000
     16590       145  DOPC      C216           27.3981658959       11.0209510725        0.5669811102  MEMB      117             0.0000000000
     16591       145  DOPC      H16R           27.1512736814       11.9513914834        1.1216386774  MEMB      117             0.0000000000
     16592       145  DOPC      H16S           28.5003964742       10.9198441092        0.4711333189  MEMB      117             0.0000000000
     16593       145  DOPC      C217           26.8477158194        9.9521956327        1.6170891888  MEMB      117             0.0000000000
     16594       145  DOPC      H17R           27.0891896162       10.4114865618        2.5994654989  MEMB      117             0.0000000000
     16595       145  DOPC      H17S           27.4802124154        9.0705543929        1.3783897032  MEMB      117             0.0000000000
     16596       145  DOPC      C218           25.3909212621        9.4857663627        1.6151456191  MEMB      117             0.0000000000
     16597       145  DOPC      H18R           24.6879111469       10.3163196583        1.8393756222  MEMB      117             0.0000000000
     16598       145  DOPC      H18S           25.3294744104        8.7317033936        2.4287388811  MEMB      117             0.0000000000
     16599       145  DOPC      H18T           25.1936203801        8.8294808680        0.7406850340  MEMB      117             0.0000000000
     16600       145  DOPC      C33            25.1114637483       11.2121937157      -11.2762516163  MEMB      117             0.0000000000
     16601       145  DOPC      H3X            24.9578337161       10.1874416704      -11.6770035318  MEMB      117             0.0000000000
     16602       145  DOPC      H3Y            24.4601601273       11.9904489128      -11.7284062156  MEMB      117             0.0000000000
     16603       145  DOPC      C34            24.6958234860       11.2616081392       -9.7673545948  MEMB      117             0.0000000000
     16604       145  DOPC      H4X            23.5977461780       11.1147233284       -9.6838527875  MEMB      117             0.0000000000
     16605       145  DOPC      H4Y            24.8581490642       12.2438478141       -9.2742250870  MEMB      117             0.0000000000
     16606       145  DOPC      C35            25.3720877623       10.0946077193       -8.9809320648  MEMB      117             0.0000000000
     16607       145  DOPC      H5X            26.4702588119       10.0352814987       -8.8233831092  MEMB      117             0.0000000000
     16608       145  DOPC      H5Y            25.1280438217        9.2075524996       -9.6037454345  MEMB      117             0.0000000000
     16609       145  DOPC      C36            24.7388665239        9.8780373798       -7.6037940854  MEMB      117             0.0000000000
     16610       145  DOPC      H6X            24.7085225755       10.7678320133       -6.9392142882  MEMB      117             0.0000000000
     16611       145  DOPC      H6Y            23.7046232193        9.5023077632       -7.7570565129  MEMB      117             0.0000000000
     16612       145  DOPC      C37            25.4203724762        8.7258627785       -6.8229464136  MEMB      117             0.0000000000
     16613       145  DOPC      H7X            24.6588070755        7.9752819228       -6.5213378120  MEMB      117             0.0000000000
     16614       145  DOPC      H7Y            26.0835080231        8.1416359344       -7.4961853928  MEMB      117             0.0000000000
     16615       145  DOPC      C38            26.2761438800        9.3498692298       -5.6956833695  MEMB      117             0.0000000000
     16616       145  DOPC      H8X            25.6148026170        9.8615235100       -4.9641382492  MEMB      117             0.0000000000
     16617       145  DOPC      H8Y            26.9366252769       10.0884365194       -6.1982795673  MEMB      117             0.0000000000
     16618       145  DOPC      C39            27.2517462609        8.4108172631       -4.9995431842  MEMB      117             0.0000000000
     16619       145  DOPC      H9X            26.8304949402        7.4593423853       -4.6428320448  MEMB      117             0.0000000000
     16620       145  DOPC      C310           28.5784143303        8.5422850631       -4.8985548415  MEMB      117             0.0000000000
     16621       145  DOPC      H10X           29.1294367728        7.7093840674       -4.4374152496  MEMB      117             0.0000000000
     16622       145  DOPC      C311           29.5095379863        9.6147049153       -5.3795836679  MEMB      117             0.0000000000
     16623       145  DOPC      H11X           28.8738548817       10.4007885269       -5.8403449502  MEMB      117             0.0000000000
     16624       145  DOPC      H11Y           30.0900030868        9.2007411484       -6.2316492837  MEMB      117             0.0000000000
     16625       145  DOPC      C312           30.5577993873       10.2215543571       -4.4148173452  MEMB      117             0.0000000000
     16626       145  DOPC      H12X           30.0935202076       10.5391255879       -3.4567393339  MEMB      117             0.0000000000
     16627       145  DOPC      H12Y           30.9107499035       11.1548936628       -4.9033098769  MEMB      117             0.0000000000
     16628       145  DOPC      C313           31.7411743356        9.1760094215       -4.2203018692  MEMB      117             0.0000000000
     16629       145  DOPC      H13X           31.2801591394        8.2977767895       -3.7198088292  MEMB      117             0.0000000000
     16630       145  DOPC      H13Y           32.0878848343        8.7520624615       -5.1869361496  MEMB      117             0.0000000000
     16631       145  DOPC      C314           32.9740066620        9.7056156731       -3.3900308289  MEMB      117             0.0000000000
     16632       145  DOPC      H14X           33.6548234737        8.8730232711       -3.1114635298  MEMB      117             0.0000000000
     16633       145  DOPC      H14Y           33.5642455346       10.4380476924       -3.9812012270  MEMB      117             0.0000000000
     16634       145  DOPC      C315           32.6038455638       10.4149273564       -2.0702263361  MEMB      117             0.0000000000
     16635       145  DOPC      H15X           31.9549390829       11.2987810715       -2.2492339327  MEMB      117             0.0000000000
     16636       145  DOPC      H15Y           33.5075879001       10.8601720742       -1.6019013578  MEMB      117             0.0000000000
     16637       145  DOPC      C316           31.9841901614        9.3197302459       -1.1230174592  MEMB      117             0.0000000000
     16638       145  DOPC      H16X           31.1305628795        8.8062080675       -1.6148872266  MEMB      117             0.0000000000
     16639       145  DOPC      H16Y           32.7844197390        8.5788308082       -0.9108344168  MEMB      117             0.0000000000
     16640       145  DOPC      C317           31.5230435149       10.0008128456        0.1659073865  MEMB      117             0.0000000000
     16641       145  DOPC      H17X           30.5916509871       10.5374459211       -0.1149024696  MEMB      117             0.0000000000
     16642       145  DOPC      H17Y           31.2145223204        9.2504911127        0.9249534093  MEMB      117             0.0000000000
     16643       145  DOPC      C318           32.3203215266       11.0549492143        0.8614164353  MEMB      117             0.0000000000
     16644       145  DOPC      H18X           31.9190035143       11.3749635107        1.8467376203  MEMB      117             0.0000000000
     16645       145  DOPC      H18Y           33.3727276522       10.7774046920        1.0844222597  MEMB      117             0.0000000000
     16646       145  DOPC      H18Z           32.3523763189       11.9850939284        0.2546833145  MEMB      117             0.0000000000
     16647       146  DOPC      N             -18.0765769034       27.7165259783      -18.7614446984  MEMB      118             0.0000000000
     16648       146  DOPC      C12           -17.2013145503       28.7552425585      -19.3936819116  MEMB      118             0.0000000000
     16649       146  DOPC      H12A          -17.5007392004       28.8558922594      -20.4264522068  MEMB      118             0.0000000000
     16650       146  DOPC      H12B          -16.1411257873       28.5510895297      -19.4205384703  MEMB      118             0.0000000000
     16651       146  DOPC      C13           -17.4897789860       26.3351772886      -19.2022251523  MEMB      118             0.0000000000
     16652       146  DOPC      H13A          -17.4636369655       26.1159518943      -20.2594180924  MEMB      118             0.0000000000
     16653       146  DOPC      H13B          -16.4532705791       26.3555431776      -18.8995113499  MEMB      118             0.0000000000
     16654       146  DOPC      H13C          -17.9913303152       25.5009970311      -18.7342622737  MEMB      118             0.0000000000
     16655       146  DOPC      C14           -19.4722684302       27.9537035039      -19.2306093603  MEMB      118             0.0000000000
     16656       146  DOPC      H14A          -20.1745401943       27.3494621811      -18.6755359328  MEMB      118             0.0000000000
     16657       146  DOPC      H14B          -19.8367067540       28.9616905104      -19.0981441469  MEMB      118             0.0000000000
     16658       146  DOPC      H14C          -19.6595607050       27.6707898485      -20.2559294626  MEMB      118             0.0000000000
     16659       146  DOPC      C15           -17.9288669132       27.7361862012      -17.2350020724  MEMB      118             0.0000000000
     16660       146  DOPC      H15A          -18.2023186752       28.6685584000      -16.7635083457  MEMB      118             0.0000000000
     16661       146  DOPC      H15B          -16.8923055255       27.4984136749      -17.0468410714  MEMB      118             0.0000000000
     16662       146  DOPC      H15C          -18.5316279414       26.9658437013      -16.7771248127  MEMB      118             0.0000000000
     16663       146  DOPC      C11           -17.1885017307       30.2446522750      -18.7948820154  MEMB      118             0.0000000000
     16664       146  DOPC      H11A          -16.6035224035       30.0829134520      -17.8643118220  MEMB      118             0.0000000000
     16665       146  DOPC      H11B          -16.7380362618       30.8715299966      -19.5938977108  MEMB      118             0.0000000000
     16666       146  DOPC      P             -19.2172729886       31.8125606181      -19.3632151454  MEMB      118             0.0000000000
     16667       146  DOPC      O13           -19.8327013225       31.1832435496      -20.5998704057  MEMB      118             0.0000000000
     16668       146  DOPC      O14           -18.2165416224       32.9122708395      -19.5270980573  MEMB      118             0.0000000000
     16669       146  DOPC      O12           -18.5219896263       30.6609770718      -18.5629182852  MEMB      118             0.0000000000
     16670       146  DOPC      O11           -20.2814585918       32.3327549622      -18.3290528995  MEMB      118             0.0000000000
     16671       146  DOPC      C1            -21.2830415012       31.6321517701      -17.6443830115  MEMB      118             0.0000000000
     16672       146  DOPC      HA            -21.4823930261       30.6135363375      -18.0406185684  MEMB      118             0.0000000000
     16673       146  DOPC      HB            -22.2349040743       32.1688046005      -17.8450883120  MEMB      118             0.0000000000
     16674       146  DOPC      C2            -20.8945625532       31.6557045309      -16.1562876824  MEMB      118             0.0000000000
     16675       146  DOPC      HS            -20.8476822959       32.7564250714      -16.0129788323  MEMB      118             0.0000000000
     16676       146  DOPC      O21           -19.7066752649       30.9105471778      -15.9235358840  MEMB      118             0.0000000000
     16677       146  DOPC      C21           -18.8058779677       31.6025199747      -15.2797082265  MEMB      118             0.0000000000
     16678       146  DOPC      O22           -19.0369485245       32.6806310748      -14.6625828110  MEMB      118             0.0000000000
     16679       146  DOPC      C22           -17.3898326706       30.9948774619      -15.2820908092  MEMB      118             0.0000000000
     16680       146  DOPC      H2R           -16.7328259875       31.7154782341      -15.8144418982  MEMB      118             0.0000000000
     16681       146  DOPC      H2S           -17.4258295984       30.0232962796      -15.8197291375  MEMB      118             0.0000000000
     16682       146  DOPC      C3            -22.0315803136       31.0231253487      -15.2717434670  MEMB      118             0.0000000000
     16683       146  DOPC      HX            -22.3002273275       30.1005407567      -15.8294060974  MEMB      118             0.0000000000
     16684       146  DOPC      HY            -22.9970307456       31.5727285857      -15.2844999957  MEMB      118             0.0000000000
     16685       146  DOPC      O31           -21.5543557781       30.7527087458      -13.8878433979  MEMB      118             0.0000000000
     16686       146  DOPC      C31           -22.5190829826       30.7602659323      -13.0121426242  MEMB      118             0.0000000000
     16687       146  DOPC      O32           -23.7217579834       30.8406033240      -13.2571722219  MEMB      118             0.0000000000
     16688       146  DOPC      C32           -21.9198271324       30.9340382653      -11.5741693296  MEMB      118             0.0000000000
     16689       146  DOPC      H2X           -21.2049939550       30.1171814950      -11.3373578778  MEMB      118             0.0000000000
     16690       146  DOPC      H2Y           -21.3254775011       31.8630136126      -11.7086099294  MEMB      118             0.0000000000
     16691       146  DOPC      C23           -16.8206762331       30.9755984834      -13.8754981076  MEMB      118             0.0000000000
     16692       146  DOPC      H3R           -17.5122985053       30.3482388127      -13.2735018120  MEMB      118             0.0000000000
     16693       146  DOPC      H3S           -16.9537000930       31.9373530172      -13.3354483772  MEMB      118             0.0000000000
     16694       146  DOPC      C24           -15.3326045238       30.6604968102      -13.7165615811  MEMB      118             0.0000000000
     16695       146  DOPC      H4R           -14.7837883249       31.2585184539      -14.4751734827  MEMB      118             0.0000000000
     16696       146  DOPC      H4S           -15.0982975234       29.5890153903      -13.8936170601  MEMB      118             0.0000000000
     16697       146  DOPC      C25           -14.8180242376       30.9761867712      -12.2384487671  MEMB      118             0.0000000000
     16698       146  DOPC      H5R           -15.1614638574       31.9976299608      -11.9682187475  MEMB      118             0.0000000000
     16699       146  DOPC      H5S           -13.7158127976       31.0108789246      -12.3735293834  MEMB      118             0.0000000000
     16700       146  DOPC      C26           -15.2108371500       29.8681027266      -11.2682044247  MEMB      118             0.0000000000
     16701       146  DOPC      H6R           -14.3473432745       29.1822902124      -11.4037051390  MEMB      118             0.0000000000
     16702       146  DOPC      H6S           -16.1218319096       29.2894772022      -11.5320270119  MEMB      118             0.0000000000
     16703       146  DOPC      C27           -15.2110576885       30.4070057110       -9.8512112286  MEMB      118             0.0000000000
     16704       146  DOPC      H7R           -14.2547179174       30.9157065778       -9.6043130475  MEMB      118             0.0000000000
     16705       146  DOPC      H7S           -15.2607084139       29.4582166563       -9.2753156532  MEMB      118             0.0000000000
     16706       146  DOPC      C28           -16.4813043399       31.2813476494       -9.5062445302  MEMB      118             0.0000000000
     16707       146  DOPC      H8R           -16.6186013733       32.0592591089      -10.2874769851  MEMB      118             0.0000000000
     16708       146  DOPC      H8S           -16.3334443090       31.8513506787       -8.5641434843  MEMB      118             0.0000000000
     16709       146  DOPC      C29           -17.7483679708       30.4921550816       -9.3764032732  MEMB      118             0.0000000000
     16710       146  DOPC      H9R           -17.9798597727       29.7793581392      -10.1815948840  MEMB      118             0.0000000000
     16711       146  DOPC      C210          -18.7128876367       30.7238641053       -8.4498306531  MEMB      118             0.0000000000
     16712       146  DOPC      H10R          -19.6420296775       30.1443150676       -8.3458209538  MEMB      118             0.0000000000
     16713       146  DOPC      C211          -18.7106410409       31.7878063309       -7.3546534945  MEMB      118             0.0000000000
     16714       146  DOPC      H11R          -19.6428272448       32.3774415023       -7.4876202399  MEMB      118             0.0000000000
     16715       146  DOPC      H11S          -17.9409564460       32.5716851755       -7.5203055083  MEMB      118             0.0000000000
     16716       146  DOPC      C212          -18.4894251486       31.3146536566       -5.9690290221  MEMB      118             0.0000000000
     16717       146  DOPC      H12R          -17.3994896516       31.1030840280       -5.9290321025  MEMB      118             0.0000000000
     16718       146  DOPC      H12S          -18.9849088001       30.3352827076       -5.7968391967  MEMB      118             0.0000000000
     16719       146  DOPC      C213          -18.7366607251       32.2884284692       -4.7775539610  MEMB      118             0.0000000000
     16720       146  DOPC      H13R          -19.7510091159       32.7088826114       -4.9467773999  MEMB      118             0.0000000000
     16721       146  DOPC      H13S          -18.0131736220       33.1107374296       -4.9638206835  MEMB      118             0.0000000000
     16722       146  DOPC      C214          -18.1835424996       31.7179832677       -3.4312730498  MEMB      118             0.0000000000
     16723       146  DOPC      H14R          -18.0620815331       32.6799595826       -2.8888993866  MEMB      118             0.0000000000
     16724       146  DOPC      H14S          -17.2322104813       31.1753039924       -3.6177882599  MEMB      118             0.0000000000
     16725       146  DOPC      C215          -19.0490343288       30.7828725757       -2.5428580350  MEMB      118             0.0000000000
     16726       146  DOPC      H15R          -19.3133941885       29.8911947934       -3.1505959824  MEMB      118             0.0000000000
     16727       146  DOPC      H15S          -20.0136848244       31.3273393850       -2.4572652515  MEMB      118             0.0000000000
     16728       146  DOPC      C216          -18.3125234950       30.3327577351       -1.2946834199  MEMB      118             0.0000000000
     16729       146  DOPC      H16R          -17.8941542999       31.2124959891       -0.7605035642  MEMB      118             0.0000000000
     16730       146  DOPC      H16S          -17.3525022531       29.8716512044       -1.6110077822  MEMB      118             0.0000000000
     16731       146  DOPC      C217          -19.1155888845       29.4748383478       -0.3872196367  MEMB      118             0.0000000000
     16732       146  DOPC      H17R          -18.6330694282       29.3838241831        0.6093811817  MEMB      118             0.0000000000
     16733       146  DOPC      H17S          -19.2797602697       28.4543925463       -0.7947227008  MEMB      118             0.0000000000
     16734       146  DOPC      C218          -20.5036249979       30.0074369665       -0.0319496049  MEMB      118             0.0000000000
     16735       146  DOPC      H18R          -21.2659109687       29.6437432294       -0.7537314395  MEMB      118             0.0000000000
     16736       146  DOPC      H18S          -20.4135449425       31.1127881873       -0.0983217850  MEMB      118             0.0000000000
     16737       146  DOPC      H18T          -20.7356752998       29.7098321059        1.0129935246  MEMB      118             0.0000000000
     16738       146  DOPC      C33           -23.1862027797       30.9728055570      -10.6592662084  MEMB      118             0.0000000000
     16739       146  DOPC      H3X           -23.8128751337       30.0576661315      -10.7234734504  MEMB      118             0.0000000000
     16740       146  DOPC      H3Y           -23.8256334983       31.8000564865      -11.0349053344  MEMB      118             0.0000000000
     16741       146  DOPC      C34           -22.9290572840       31.2539648964       -9.2309663755  MEMB      118             0.0000000000
     16742       146  DOPC      H4X           -22.0160279441       31.8580606087       -9.0418456407  MEMB      118             0.0000000000
     16743       146  DOPC      H4Y           -22.6248946133       30.3130865743       -8.7244550036  MEMB      118             0.0000000000
     16744       146  DOPC      C35           -24.1332258404       31.9264523510       -8.5509158210  MEMB      118             0.0000000000
     16745       146  DOPC      H5X           -25.0038312650       31.3133882518       -8.8679632856  MEMB      118             0.0000000000
     16746       146  DOPC      H5Y           -24.2847806383       32.9567175123       -8.9380923726  MEMB      118             0.0000000000
     16747       146  DOPC      C36           -23.9470699985       31.8925159970       -7.0594145200  MEMB      118             0.0000000000
     16748       146  DOPC      H6X           -24.8906029697       32.2170642303       -6.5708090754  MEMB      118             0.0000000000
     16749       146  DOPC      H6Y           -23.7447664726       30.8129201817       -6.8924806596  MEMB      118             0.0000000000
     16750       146  DOPC      C37           -22.9784131064       32.9194543492       -6.5188076309  MEMB      118             0.0000000000
     16751       146  DOPC      H7X           -22.8950410290       32.6488412085       -5.4444991562  MEMB      118             0.0000000000
     16752       146  DOPC      H7Y           -21.9163791113       32.7853652753       -6.8161712169  MEMB      118             0.0000000000
     16753       146  DOPC      C38           -23.4687255955       34.3937241045       -6.5210403211  MEMB      118             0.0000000000
     16754       146  DOPC      H8X           -24.4584224568       34.2962716295       -6.0257392563  MEMB      118             0.0000000000
     16755       146  DOPC      H8Y           -23.5426591412       34.8977826114       -7.5083505252  MEMB      118             0.0000000000
     16756       146  DOPC      C39           -22.5011040323       35.1038155501       -5.6377854972  MEMB      118             0.0000000000
     16757       146  DOPC      H9X           -21.4472403080       34.9722766682       -5.9242616280  MEMB      118             0.0000000000
     16758       146  DOPC      C310          -22.8519940913       35.7393433960       -4.4369953016  MEMB      118             0.0000000000
     16759       146  DOPC      H10X          -21.9512378471       36.2215240833       -4.0293923256  MEMB      118             0.0000000000
     16760       146  DOPC      C311          -24.1742049059       35.9381445387       -3.8502196648  MEMB      118             0.0000000000
     16761       146  DOPC      H11X          -25.0789844004       35.6483228491       -4.4261519208  MEMB      118             0.0000000000
     16762       146  DOPC      H11Y          -24.2956940514       37.0309880214       -3.6912991498  MEMB      118             0.0000000000
     16763       146  DOPC      C312          -24.3091444837       35.3154574081       -2.4764226255  MEMB      118             0.0000000000
     16764       146  DOPC      H12X          -25.3856877878       35.4453150556       -2.2345279156  MEMB      118             0.0000000000
     16765       146  DOPC      H12Y          -23.6514110116       35.8200760138       -1.7367810310  MEMB      118             0.0000000000
     16766       146  DOPC      C313          -24.1381059414       33.7671739639       -2.4533468075  MEMB      118             0.0000000000
     16767       146  DOPC      H13X          -24.9271510893       33.3441188413       -3.1111865943  MEMB      118             0.0000000000
     16768       146  DOPC      H13Y          -23.1285857414       33.4967290884       -2.8302410018  MEMB      118             0.0000000000
     16769       146  DOPC      C314          -24.3137724046       33.2663420255       -1.0278115117  MEMB      118             0.0000000000
     16770       146  DOPC      H14X          -23.7289891488       33.8743613000       -0.3048580358  MEMB      118             0.0000000000
     16771       146  DOPC      H14Y          -25.3531087494       33.4224399451       -0.6676258257  MEMB      118             0.0000000000
     16772       146  DOPC      C315          -24.2264057459       31.7643828113       -0.9059532907  MEMB      118             0.0000000000
     16773       146  DOPC      H15X          -23.1910702160       31.3639945132       -0.9516731266  MEMB      118             0.0000000000
     16774       146  DOPC      H15Y          -24.7087351515       31.4076162852       -1.8410457568  MEMB      118             0.0000000000
     16775       146  DOPC      C316          -25.0247251644       31.0961525301        0.1759810657  MEMB      118             0.0000000000
     16776       146  DOPC      H16X          -24.5908835549       31.3153251154        1.1750135556  MEMB      118             0.0000000000
     16777       146  DOPC      H16Y          -26.0406547957       31.5455883345        0.1612829790  MEMB      118             0.0000000000
     16778       146  DOPC      C317          -25.0762489354       29.5910199270        0.0467776759  MEMB      118             0.0000000000
     16779       146  DOPC      H17X          -25.5940003815       29.1879920740        0.9433406400  MEMB      118             0.0000000000
     16780       146  DOPC      H17Y          -25.6940512366       29.3320746808       -0.8395569098  MEMB      118             0.0000000000
     16781       146  DOPC      C318          -23.7411079920       28.7494389933        0.0374657058  MEMB      118             0.0000000000
     16782       146  DOPC      H18X          -24.1482275094       27.7199746391       -0.0562263195  MEMB      118             0.0000000000
     16783       146  DOPC      H18Y          -23.2508643798       28.9047819180       -0.9473444113  MEMB      118             0.0000000000
     16784       146  DOPC      H18Z          -23.1546508656       28.8992743665        0.9690965341  MEMB      118             0.0000000000
     16785       147  DOPC      N             -22.7443029961       24.4449926396      -18.7640198986  MEMB      119             0.0000000000
     16786       147  DOPC      C12           -23.9777053734       23.8010057966      -18.1809699496  MEMB      119             0.0000000000
     16787       147  DOPC      H12A          -24.3346000863       24.4706020694      -17.4124212900  MEMB      119             0.0000000000
     16788       147  DOPC      H12B          -23.6664815185       22.8667572551      -17.7374393156  MEMB      119             0.0000000000
     16789       147  DOPC      C13           -22.0772155287       23.4242673753      -19.7157222381  MEMB      119             0.0000000000
     16790       147  DOPC      H13A          -21.8704785220       22.6004225112      -19.0486846329  MEMB      119             0.0000000000
     16791       147  DOPC      H13B          -22.6619692485       23.1063333805      -20.5662402871  MEMB      119             0.0000000000
     16792       147  DOPC      H13C          -21.1434816163       23.7938297017      -20.1131695797  MEMB      119             0.0000000000
     16793       147  DOPC      C14           -21.8624123005       24.9123411196      -17.6982973132  MEMB      119             0.0000000000
     16794       147  DOPC      H14A          -20.9976268679       25.2987871790      -18.2171474447  MEMB      119             0.0000000000
     16795       147  DOPC      H14B          -22.1724240195       25.7156110415      -17.0463385097  MEMB      119             0.0000000000
     16796       147  DOPC      H14C          -21.6028894763       24.1056573149      -17.0287382922  MEMB      119             0.0000000000
     16797       147  DOPC      C15           -23.0830200617       25.7114160418      -19.6249877899  MEMB      119             0.0000000000
     16798       147  DOPC      H15A          -23.7601723325       26.2263863531      -18.9596529376  MEMB      119             0.0000000000
     16799       147  DOPC      H15B          -23.6176767149       25.4283358173      -20.5196429720  MEMB      119             0.0000000000
     16800       147  DOPC      H15C          -22.1891853186       26.2192821325      -19.9559428007  MEMB      119             0.0000000000
     16801       147  DOPC      C11           -25.0347149818       23.3470196381      -19.1490868410  MEMB      119             0.0000000000
     16802       147  DOPC      H11A          -24.6138155113       22.6722810165      -19.9249042228  MEMB      119             0.0000000000
     16803       147  DOPC      H11B          -25.7598766919       22.6785770876      -18.6375732434  MEMB      119             0.0000000000
     16804       147  DOPC      P             -27.0061347786       25.0013760534      -19.1966518574  MEMB      119             0.0000000000
     16805       147  DOPC      O13           -28.0674656589       24.0175955724      -19.3855299057  MEMB      119             0.0000000000
     16806       147  DOPC      O14           -27.3483070386       26.3184354318      -19.7712131108  MEMB      119             0.0000000000
     16807       147  DOPC      O12           -25.6328118479       24.4537431308      -19.8471341094  MEMB      119             0.0000000000
     16808       147  DOPC      O11           -26.6593628789       25.0832395849      -17.6663869838  MEMB      119             0.0000000000
     16809       147  DOPC      C1            -27.7101269544       25.2404973732      -16.6915475339  MEMB      119             0.0000000000
     16810       147  DOPC      HA            -28.7333472887       25.3285627340      -17.1153228796  MEMB      119             0.0000000000
     16811       147  DOPC      HB            -27.6918498477       26.2468004544      -16.2210782024  MEMB      119             0.0000000000
     16812       147  DOPC      C2            -27.5425846363       24.2452589597      -15.5031541808  MEMB      119             0.0000000000
     16813       147  DOPC      HS            -28.2315256790       24.5659078544      -14.6926819456  MEMB      119             0.0000000000
     16814       147  DOPC      O21           -26.1896552435       24.2266318858      -15.0118325600  MEMB      119             0.0000000000
     16815       147  DOPC      C21           -25.8226409581       24.9058994306      -13.9673934499  MEMB      119             0.0000000000
     16816       147  DOPC      O22           -26.5523311070       25.3344188532      -13.0642783236  MEMB      119             0.0000000000
     16817       147  DOPC      C22           -24.2452892803       24.8880104452      -13.9401566172  MEMB      119             0.0000000000
     16818       147  DOPC      H2R           -23.7807931518       25.6871084428      -14.5566032711  MEMB      119             0.0000000000
     16819       147  DOPC      H2S           -23.8233807212       24.0086483438      -14.4721684388  MEMB      119             0.0000000000
     16820       147  DOPC      C3            -27.9052171087       22.8076185057      -16.0801007095  MEMB      119             0.0000000000
     16821       147  DOPC      HX            -27.3867386797       22.6646842787      -17.0522482072  MEMB      119             0.0000000000
     16822       147  DOPC      HY            -29.0077321097       22.7752572953      -16.2132712253  MEMB      119             0.0000000000
     16823       147  DOPC      O31           -27.4876830935       21.7805512731      -15.1959376732  MEMB      119             0.0000000000
     16824       147  DOPC      C31           -27.6058998723       20.4882387875      -15.6271618336  MEMB      119             0.0000000000
     16825       147  DOPC      O32           -27.9944987554       20.1958890314      -16.7402723451  MEMB      119             0.0000000000
     16826       147  DOPC      C32           -27.1961393325       19.5682300305      -14.5052963972  MEMB      119             0.0000000000
     16827       147  DOPC      H2X           -27.7902982895       19.7929745574      -13.5938220026  MEMB      119             0.0000000000
     16828       147  DOPC      H2Y           -27.2196962039       18.4683099539      -14.6600278960  MEMB      119             0.0000000000
     16829       147  DOPC      C23           -23.7488437919       25.1423218591      -12.5036530575  MEMB      119             0.0000000000
     16830       147  DOPC      H3R           -22.8065915280       24.5765027828      -12.3413863327  MEMB      119             0.0000000000
     16831       147  DOPC      H3S           -24.4399056197       24.7402790927      -11.7322150782  MEMB      119             0.0000000000
     16832       147  DOPC      C24           -23.1813369804       26.5724875187      -12.3252894555  MEMB      119             0.0000000000
     16833       147  DOPC      H4R           -24.0174438368       27.2959367066      -12.4342273102  MEMB      119             0.0000000000
     16834       147  DOPC      H4S           -22.3884769003       26.5093201692      -13.1009855422  MEMB      119             0.0000000000
     16835       147  DOPC      C25           -22.4286888234       26.8713521418      -11.0433547333  MEMB      119             0.0000000000
     16836       147  DOPC      H5R           -21.9759609258       27.8763743537      -11.1822375365  MEMB      119             0.0000000000
     16837       147  DOPC      H5S           -21.5497280979       26.1923439866      -11.0697520684  MEMB      119             0.0000000000
     16838       147  DOPC      C26           -23.1384722142       26.7504312390       -9.7140832000  MEMB      119             0.0000000000
     16839       147  DOPC      H6R           -23.8622513693       25.9080671173       -9.7438750347  MEMB      119             0.0000000000
     16840       147  DOPC      H6S           -23.7347178864       27.6779135012       -9.5777433925  MEMB      119             0.0000000000
     16841       147  DOPC      C27           -22.2404278414       26.4935480080       -8.5212906942  MEMB      119             0.0000000000
     16842       147  DOPC      H7R           -21.4634414278       27.2874039456       -8.5011304992  MEMB      119             0.0000000000
     16843       147  DOPC      H7S           -21.5781421902       25.6235264673       -8.7181691443  MEMB      119             0.0000000000
     16844       147  DOPC      C28           -22.9473803316       26.2437352011       -7.1061748188  MEMB      119             0.0000000000
     16845       147  DOPC      H8R           -22.1085930386       26.4106420376       -6.3970211827  MEMB      119             0.0000000000
     16846       147  DOPC      H8S           -23.1424594915       25.1588990481       -6.9669047899  MEMB      119             0.0000000000
     16847       147  DOPC      C29           -23.9580345508       27.2358577680       -6.7385492507  MEMB      119             0.0000000000
     16848       147  DOPC      H9R           -23.9002472449       28.1122296446       -7.4008428964  MEMB      119             0.0000000000
     16849       147  DOPC      C210          -24.8168564470       27.1656013765       -5.7769741163  MEMB      119             0.0000000000
     16850       147  DOPC      H10R          -25.5273393866       28.0047044120       -5.7435069218  MEMB      119             0.0000000000
     16851       147  DOPC      C211          -25.0602320039       26.0665186198       -4.8249952383  MEMB      119             0.0000000000
     16852       147  DOPC      H11R          -25.2679645738       26.5114528528       -3.8284002686  MEMB      119             0.0000000000
     16853       147  DOPC      H11S          -24.2211426069       25.3664933857       -4.6244590940  MEMB      119             0.0000000000
     16854       147  DOPC      C212          -26.2397535055       25.1183503574       -5.1518838806  MEMB      119             0.0000000000
     16855       147  DOPC      H12R          -26.1060383152       24.2609187598       -4.4581608839  MEMB      119             0.0000000000
     16856       147  DOPC      H12S          -26.0388095389       24.7938568826       -6.1952662169  MEMB      119             0.0000000000
     16857       147  DOPC      C213          -27.5713911523       25.8003907693       -5.0209784467  MEMB      119             0.0000000000
     16858       147  DOPC      H13R          -27.6097190313       26.6764926401       -5.7031063656  MEMB      119             0.0000000000
     16859       147  DOPC      H13S          -27.8341569595       26.1071510369       -3.9860036088  MEMB      119             0.0000000000
     16860       147  DOPC      C214          -28.8740374166       24.9822227965       -5.4180555943  MEMB      119             0.0000000000
     16861       147  DOPC      H14R          -28.6241718318       24.6111828859       -6.4350209396  MEMB      119             0.0000000000
     16862       147  DOPC      H14S          -29.7966311731       25.6011323306       -5.4276664733  MEMB      119             0.0000000000
     16863       147  DOPC      C215          -28.9815602034       23.6949656783       -4.5690978249  MEMB      119             0.0000000000
     16864       147  DOPC      H15R          -29.0951908076       23.9994781215       -3.5067034473  MEMB      119             0.0000000000
     16865       147  DOPC      H15S          -28.0742687826       23.0704861614       -4.7145917739  MEMB      119             0.0000000000
     16866       147  DOPC      C216          -30.2098865131       22.7991659740       -4.8370131778  MEMB      119             0.0000000000
     16867       147  DOPC      H16R          -30.1939210724       22.3765217132       -5.8643581557  MEMB      119             0.0000000000
     16868       147  DOPC      H16S          -31.0866998044       23.4811848637       -4.8562328529  MEMB      119             0.0000000000
     16869       147  DOPC      C217          -30.5544928545       21.6558580420       -3.7766410245  MEMB      119             0.0000000000
     16870       147  DOPC      H17R          -31.5059004885       21.2039870661       -4.1301341561  MEMB      119             0.0000000000
     16871       147  DOPC      H17S          -30.6334503406       22.1535466860       -2.7864938542  MEMB      119             0.0000000000
     16872       147  DOPC      C218          -29.5268077936       20.5482594611       -3.6881331067  MEMB      119             0.0000000000
     16873       147  DOPC      H18R          -28.5011873438       20.9608076827       -3.5775534556  MEMB      119             0.0000000000
     16874       147  DOPC      H18S          -29.4085188255       19.9984352558       -4.6462683230  MEMB      119             0.0000000000
     16875       147  DOPC      H18T          -29.6759153471       19.7682599034       -2.9111588870  MEMB      119             0.0000000000
     16876       147  DOPC      C33           -25.7574230656       19.8524825251      -14.1592093228  MEMB      119             0.0000000000
     16877       147  DOPC      H3X           -25.6380058139       20.8595051594      -13.7053747644  MEMB      119             0.0000000000
     16878       147  DOPC      H3Y           -25.0684951258       19.7277989315      -15.0218527734  MEMB      119             0.0000000000
     16879       147  DOPC      C34           -25.2012366717       18.9033529499      -13.0171286955  MEMB      119             0.0000000000
     16880       147  DOPC      H4X           -24.1599868179       19.2766588460      -12.9133855334  MEMB      119             0.0000000000
     16881       147  DOPC      H4Y           -25.2254947248       17.8515119224      -13.3740079862  MEMB      119             0.0000000000
     16882       147  DOPC      C35           -25.8895315655       18.9823629123      -11.6505385141  MEMB      119             0.0000000000
     16883       147  DOPC      H5X           -25.5465087050       18.1199035162      -11.0399492450  MEMB      119             0.0000000000
     16884       147  DOPC      H5Y           -26.9952387041       18.8802898833      -11.6867797993  MEMB      119             0.0000000000
     16885       147  DOPC      C36           -25.6290298501       20.2936953282      -10.8720448558  MEMB      119             0.0000000000
     16886       147  DOPC      H6X           -24.5290567914       20.3550660293      -10.7284689073  MEMB      119             0.0000000000
     16887       147  DOPC      H6Y           -25.8623911666       21.1035224973      -11.5959528722  MEMB      119             0.0000000000
     16888       147  DOPC      C37           -26.4083051963       20.4604811813       -9.5637919393  MEMB      119             0.0000000000
     16889       147  DOPC      H7X           -27.5010683223       20.3207452204       -9.7075403297  MEMB      119             0.0000000000
     16890       147  DOPC      H7Y           -26.0907312095       19.6407831944       -8.8844073524  MEMB      119             0.0000000000
     16891       147  DOPC      C38           -26.3637191992       21.9183450116       -8.9689611592  MEMB      119             0.0000000000
     16892       147  DOPC      H8X           -27.2007911409       22.0891826727       -8.2587175605  MEMB      119             0.0000000000
     16893       147  DOPC      H8Y           -26.5408740946       22.6762589059       -9.7617425955  MEMB      119             0.0000000000
     16894       147  DOPC      C39           -24.9703151740       22.1605101282       -8.3096958331  MEMB      119             0.0000000000
     16895       147  DOPC      H9X           -24.2234652852       22.7397672854       -8.8724355174  MEMB      119             0.0000000000
     16896       147  DOPC      C310          -24.6646094958       21.6670734166       -7.0836511785  MEMB      119             0.0000000000
     16897       147  DOPC      H10X          -23.6051230359       21.6837904270       -6.7883401595  MEMB      119             0.0000000000
     16898       147  DOPC      C311          -25.6506750587       20.8466279909       -6.2554204907  MEMB      119             0.0000000000
     16899       147  DOPC      H11X          -26.4229603780       20.4521706519       -6.9498987539  MEMB      119             0.0000000000
     16900       147  DOPC      H11Y          -26.2335386553       21.2823070497       -5.4159112747  MEMB      119             0.0000000000
     16901       147  DOPC      C312          -24.9955275784       19.5885434710       -5.6485297891  MEMB      119             0.0000000000
     16902       147  DOPC      H12X          -24.5639058089       18.9560930172       -6.4535332267  MEMB      119             0.0000000000
     16903       147  DOPC      H12Y          -25.6520068912       18.7905959735       -5.2403197891  MEMB      119             0.0000000000
     16904       147  DOPC      C313          -23.9308494396       19.9177578420       -4.5816969482  MEMB      119             0.0000000000
     16905       147  DOPC      H13X          -23.7384377547       19.0457241481       -3.9207463620  MEMB      119             0.0000000000
     16906       147  DOPC      H13Y          -22.9678354369       20.0662903021       -5.1154222010  MEMB      119             0.0000000000
     16907       147  DOPC      C314          -24.4104335098       20.9979622260       -3.6574137615  MEMB      119             0.0000000000
     16908       147  DOPC      H14X          -24.6035567704       21.9690313584       -4.1614475128  MEMB      119             0.0000000000
     16909       147  DOPC      H14Y          -25.4269885551       20.6140381963       -3.4260288178  MEMB      119             0.0000000000
     16910       147  DOPC      C315          -23.5996280950       21.0692834377       -2.3328917244  MEMB      119             0.0000000000
     16911       147  DOPC      H15X          -22.7322963518       20.3749801911       -2.3322742407  MEMB      119             0.0000000000
     16912       147  DOPC      H15Y          -24.2434137190       20.9108272578       -1.4414027592  MEMB      119             0.0000000000
     16913       147  DOPC      C316          -22.9139802326       22.4500765558       -2.0491345375  MEMB      119             0.0000000000
     16914       147  DOPC      H16X          -22.4608227698       22.3947296299       -1.0362632069  MEMB      119             0.0000000000
     16915       147  DOPC      H16Y          -22.1870446628       22.6638310317       -2.8616580811  MEMB      119             0.0000000000
     16916       147  DOPC      C317          -23.9011531773       23.5614535348       -2.1372247412  MEMB      119             0.0000000000
     16917       147  DOPC      H17X          -24.3560804396       23.7203720759       -3.1382787744  MEMB      119             0.0000000000
     16918       147  DOPC      H17Y          -24.6570033964       23.5562334060       -1.3229870318  MEMB      119             0.0000000000
     16919       147  DOPC      C318          -23.1348180370       24.8144770388       -1.9335572483  MEMB      119             0.0000000000
     16920       147  DOPC      H18X          -22.4799756902       24.7410415605       -1.0390677595  MEMB      119             0.0000000000
     16921       147  DOPC      H18Y          -22.3505581266       24.9863965063       -2.7014761245  MEMB      119             0.0000000000
     16922       147  DOPC      H18Z          -23.6848712012       25.7370403899       -1.6495866134  MEMB      119             0.0000000000
     16923       148  DOPC      N             -17.0094361504      -32.4072825566      -19.7071744850  MEMB      120             0.0000000000
     16924       148  DOPC      C12           -18.4936917280      -32.2636994558      -20.1179709560  MEMB      120             0.0000000000
     16925       148  DOPC      H12A          -19.1979960811      -32.6193455457      -19.3804947022  MEMB      120             0.0000000000
     16926       148  DOPC      H12B          -18.6712477248      -32.8360825658      -21.0164426603  MEMB      120             0.0000000000
     16927       148  DOPC      C13           -16.0637050585      -32.0102555019      -20.8481501459  MEMB      120             0.0000000000
     16928       148  DOPC      H13A          -15.9599727263      -30.9407644795      -20.9569089472  MEMB      120             0.0000000000
     16929       148  DOPC      H13B          -15.0506167062      -32.3274315422      -20.6495272304  MEMB      120             0.0000000000
     16930       148  DOPC      H13C          -16.4916131217      -32.4117965851      -21.7548252484  MEMB      120             0.0000000000
     16931       148  DOPC      C14           -16.7045371464      -33.7703717778      -19.2066549606  MEMB      120             0.0000000000
     16932       148  DOPC      H14A          -17.0842367546      -34.4601139625      -19.9459004198  MEMB      120             0.0000000000
     16933       148  DOPC      H14B          -15.6735122452      -33.9700339395      -18.9546186848  MEMB      120             0.0000000000
     16934       148  DOPC      H14C          -17.1918522251      -33.8380141533      -18.2452245018  MEMB      120             0.0000000000
     16935       148  DOPC      C15           -16.7609652865      -31.3479200027      -18.6369540567  MEMB      120             0.0000000000
     16936       148  DOPC      H15A          -17.2278700841      -31.5839175270      -17.6921233711  MEMB      120             0.0000000000
     16937       148  DOPC      H15B          -17.1575881734      -30.4211187620      -19.0244198195  MEMB      120             0.0000000000
     16938       148  DOPC      H15C          -15.6887482889      -31.2366779482      -18.5708029521  MEMB      120             0.0000000000
     16939       148  DOPC      C11           -19.0404712817      -30.8002754943      -20.3344065019  MEMB      120             0.0000000000
     16940       148  DOPC      H11A          -18.3569529006      -30.3258836542      -21.0706646510  MEMB      120             0.0000000000
     16941       148  DOPC      H11B          -20.0321769620      -30.8567527494      -20.8320521017  MEMB      120             0.0000000000
     16942       148  DOPC      P             -20.2405970735      -30.1192311596      -18.0672692789  MEMB      120             0.0000000000
     16943       148  DOPC      O13           -21.1118001922      -31.3206942045      -18.3593557786  MEMB      120             0.0000000000
     16944       148  DOPC      O14           -20.9240314395      -28.8596634351      -17.7914633085  MEMB      120             0.0000000000
     16945       148  DOPC      O12           -19.0896343961      -30.0125365183      -19.1567340552  MEMB      120             0.0000000000
     16946       148  DOPC      O11           -19.4169154496      -30.5172438886      -16.7738664292  MEMB      120             0.0000000000
     16947       148  DOPC      C1            -18.6781865287      -29.5673376257      -15.9877988236  MEMB      120             0.0000000000
     16948       148  DOPC      HA            -19.3161396845      -28.9478648257      -15.3217730405  MEMB      120             0.0000000000
     16949       148  DOPC      HB            -18.0955467175      -28.9200188292      -16.6776032310  MEMB      120             0.0000000000
     16950       148  DOPC      C2            -17.7240864250      -30.4078779738      -15.0196918091  MEMB      120             0.0000000000
     16951       148  DOPC      HS            -17.4243838318      -31.3755326376      -15.4759196490  MEMB      120             0.0000000000
     16952       148  DOPC      O21           -18.5099558642      -30.5516105839      -13.8119291286  MEMB      120             0.0000000000
     16953       148  DOPC      C21           -18.1552098656      -31.5046047110      -12.9607763451  MEMB      120             0.0000000000
     16954       148  DOPC      O22           -17.0989350053      -32.1143167808      -12.9578929189  MEMB      120             0.0000000000
     16955       148  DOPC      C22           -19.3232072083      -31.7669533341      -12.0140393057  MEMB      120             0.0000000000
     16956       148  DOPC      H2R           -20.0267436054      -32.5728592135      -12.3138275728  MEMB      120             0.0000000000
     16957       148  DOPC      H2S           -19.8843437780      -30.8643918136      -11.6902652089  MEMB      120             0.0000000000
     16958       148  DOPC      C3            -16.5403421472      -29.4895399926      -14.7716355231  MEMB      120             0.0000000000
     16959       148  DOPC      HX            -16.0625157148      -29.1996071308      -15.7318136052  MEMB      120             0.0000000000
     16960       148  DOPC      HY            -15.6583814081      -29.9919743832      -14.3199436352  MEMB      120             0.0000000000
     16961       148  DOPC      O31           -16.9034151614      -28.3063616009      -14.0761313803  MEMB      120             0.0000000000
     16962       148  DOPC      C31           -16.8565441284      -28.3814443009      -12.7031441332  MEMB      120             0.0000000000
     16963       148  DOPC      O32           -16.1234091496      -29.1129806629      -12.0219162199  MEMB      120             0.0000000000
     16964       148  DOPC      C32           -17.9252983250      -27.4186556379      -12.1317224563  MEMB      120             0.0000000000
     16965       148  DOPC      H2X           -17.8355960716      -26.5419158735      -12.8081848790  MEMB      120             0.0000000000
     16966       148  DOPC      H2Y           -18.9273056619      -27.8915395148      -12.2134731786  MEMB      120             0.0000000000
     16967       148  DOPC      C23           -18.7183159915      -32.3042171435      -10.6443559905  MEMB      120             0.0000000000
     16968       148  DOPC      H3R           -18.0510533056      -33.1746339286      -10.8217140000  MEMB      120             0.0000000000
     16969       148  DOPC      H3S           -19.5793037110      -32.7398399806      -10.0936708360  MEMB      120             0.0000000000
     16970       148  DOPC      C24           -17.9148773029      -31.2541125454       -9.8384673524  MEMB      120             0.0000000000
     16971       148  DOPC      H4R           -18.7612971500      -30.6616868997       -9.4299015063  MEMB      120             0.0000000000
     16972       148  DOPC      H4S           -17.2833193295      -30.6934221034      -10.5603276408  MEMB      120             0.0000000000
     16973       148  DOPC      C25           -16.9934326930      -31.8798321103       -8.7333839230  MEMB      120             0.0000000000
     16974       148  DOPC      H5R           -16.4690651760      -32.7527347149       -9.1776815130  MEMB      120             0.0000000000
     16975       148  DOPC      H5S           -17.6407525571      -32.1931649179       -7.8865539401  MEMB      120             0.0000000000
     16976       148  DOPC      C26           -15.9549574577      -30.8787421857       -8.1232675591  MEMB      120             0.0000000000
     16977       148  DOPC      H6R           -15.5487023454      -30.3619978908       -9.0189530214  MEMB      120             0.0000000000
     16978       148  DOPC      H6S           -15.1676732996      -31.5642134324       -7.7429599035  MEMB      120             0.0000000000
     16979       148  DOPC      C27           -16.5130394417      -29.8615661093       -7.1617033331  MEMB      120             0.0000000000
     16980       148  DOPC      H7R           -17.0173261470      -30.2437465788       -6.2484927905  MEMB      120             0.0000000000
     16981       148  DOPC      H7S           -17.2508471638      -29.3931085317       -7.8476393867  MEMB      120             0.0000000000
     16982       148  DOPC      C28           -15.4494103862      -28.7999052495       -6.7262497973  MEMB      120             0.0000000000
     16983       148  DOPC      H8R           -16.0655761135      -28.1155053307       -6.1047534584  MEMB      120             0.0000000000
     16984       148  DOPC      H8S           -15.1204228590      -28.3209695608       -7.6731967409  MEMB      120             0.0000000000
     16985       148  DOPC      C29           -14.3448985530      -29.4124099037       -5.9164520660  MEMB      120             0.0000000000
     16986       148  DOPC      H9R           -13.3835780820      -29.5287209241       -6.4383094330  MEMB      120             0.0000000000
     16987       148  DOPC      C210          -14.3999204835      -29.6181734660       -4.5616038946  MEMB      120             0.0000000000
     16988       148  DOPC      H10R          -13.5446606990      -30.0058236049       -3.9886662242  MEMB      120             0.0000000000
     16989       148  DOPC      C211          -15.6109170183      -29.2848038359       -3.7235817581  MEMB      120             0.0000000000
     16990       148  DOPC      H11R          -16.5731777093      -29.3896245969       -4.2689146477  MEMB      120             0.0000000000
     16991       148  DOPC      H11S          -15.6096367994      -28.1976820372       -3.4944833209  MEMB      120             0.0000000000
     16992       148  DOPC      C212          -15.7465645791      -30.1164638784       -2.4570781119  MEMB      120             0.0000000000
     16993       148  DOPC      H12R          -14.8660920974      -29.9609877793       -1.7975967463  MEMB      120             0.0000000000
     16994       148  DOPC      H12S          -15.7493621621      -31.2045266818       -2.6816517041  MEMB      120             0.0000000000
     16995       148  DOPC      C213          -16.9648074478      -29.6647029289       -1.5708137432  MEMB      120             0.0000000000
     16996       148  DOPC      H13R          -17.0763582492      -30.3701546897       -0.7198050139  MEMB      120             0.0000000000
     16997       148  DOPC      H13S          -17.8301158923      -29.5744658076       -2.2617690522  MEMB      120             0.0000000000
     16998       148  DOPC      C214          -16.7807031551      -28.2370048569       -0.9798725711  MEMB      120             0.0000000000
     16999       148  DOPC      H14R          -16.5422970880      -27.4264568225       -1.7013264737  MEMB      120             0.0000000000
     17000       148  DOPC      H14S          -16.0131988285      -28.2558749338       -0.1768153428  MEMB      120             0.0000000000
     17001       148  DOPC      C215          -18.0866793579      -27.7727164107       -0.2912885841  MEMB      120             0.0000000000
     17002       148  DOPC      H15R          -18.1783280807      -28.4028292970        0.6191388548  MEMB      120             0.0000000000
     17003       148  DOPC      H15S          -18.9446049610      -28.0308681327       -0.9482832421  MEMB      120             0.0000000000
     17004       148  DOPC      C216          -18.1945488769      -26.2377476552       -0.0973076010  MEMB      120             0.0000000000
     17005       148  DOPC      H16R          -19.2154658652      -26.0060908746        0.2746931576  MEMB      120             0.0000000000
     17006       148  DOPC      H16S          -18.2671604607      -25.8002887094       -1.1159730431  MEMB      120             0.0000000000
     17007       148  DOPC      C217          -17.1252365622      -25.5598096095        0.7574679524  MEMB      120             0.0000000000
     17008       148  DOPC      H17R          -17.3436852035      -24.4761361633        0.8681655430  MEMB      120             0.0000000000
     17009       148  DOPC      H17S          -16.1204842190      -25.7605983511        0.3279605842  MEMB      120             0.0000000000
     17010       148  DOPC      C218          -17.2556230570      -26.2752281319        2.1101232857  MEMB      120             0.0000000000
     17011       148  DOPC      H18R          -16.6626945699      -25.7802460095        2.9087156180  MEMB      120             0.0000000000
     17012       148  DOPC      H18S          -16.9350673253      -27.3350755521        2.0190769807  MEMB      120             0.0000000000
     17013       148  DOPC      H18T          -18.3449611314      -26.2806191995        2.3283757116  MEMB      120             0.0000000000
     17014       148  DOPC      C33           -17.4666052800      -27.1409605971      -10.7606661360  MEMB      120             0.0000000000
     17015       148  DOPC      H3X           -16.3941107333      -26.8519744358      -10.7843998176  MEMB      120             0.0000000000
     17016       148  DOPC      H3Y           -17.4817928146      -28.0690115038      -10.1500829251  MEMB      120             0.0000000000
     17017       148  DOPC      C34           -18.2457107767      -25.9559551653      -10.1493475700  MEMB      120             0.0000000000
     17018       148  DOPC      H4X           -19.3538428837      -26.0008613940      -10.2152869839  MEMB      120             0.0000000000
     17019       148  DOPC      H4Y           -17.8108775875      -25.0218692299      -10.5649493777  MEMB      120             0.0000000000
     17020       148  DOPC      C35           -18.1163562413      -26.0029236385       -8.5729538178  MEMB      120             0.0000000000
     17021       148  DOPC      H5X           -17.0667991839      -25.7962445503       -8.2728957599  MEMB      120             0.0000000000
     17022       148  DOPC      H5Y           -18.3747611555      -27.0194460758       -8.2065792163  MEMB      120             0.0000000000
     17023       148  DOPC      C36           -18.9179832947      -24.9766519003       -7.8109456060  MEMB      120             0.0000000000
     17024       148  DOPC      H6X           -18.7987817547      -23.9143035401       -8.1134810520  MEMB      120             0.0000000000
     17025       148  DOPC      H6Y           -19.8915140389      -25.2252997390       -8.2850051898  MEMB      120             0.0000000000
     17026       148  DOPC      C37           -19.0216585782      -24.9983830501       -6.3402363686  MEMB      120             0.0000000000
     17027       148  DOPC      H7X           -17.9892365671      -24.7889625921       -5.9872938927  MEMB      120             0.0000000000
     17028       148  DOPC      H7Y           -19.6425035381      -24.1581986093       -5.9621324958  MEMB      120             0.0000000000
     17029       148  DOPC      C38           -19.2796391720      -26.3520858651       -5.5972195321  MEMB      120             0.0000000000
     17030       148  DOPC      H8X           -18.9310187228      -26.3250899850       -4.5426790922  MEMB      120             0.0000000000
     17031       148  DOPC      H8Y           -18.6050799880      -27.1814545883       -5.8996076880  MEMB      120             0.0000000000
     17032       148  DOPC      C39           -20.7140819849      -26.7309032399       -5.7162960334  MEMB      120             0.0000000000
     17033       148  DOPC      H9X           -21.4844859059      -25.9458721494       -5.7305840277  MEMB      120             0.0000000000
     17034       148  DOPC      C310          -21.2363148497      -27.9964109415       -5.8882765257  MEMB      120             0.0000000000
     17035       148  DOPC      H10X          -22.3097862125      -28.1564501803       -6.0672926297  MEMB      120             0.0000000000
     17036       148  DOPC      C311          -20.3014776595      -29.2452612844       -6.1041354665  MEMB      120             0.0000000000
     17037       148  DOPC      H11X          -19.3771754781      -29.0002177717       -6.6697681262  MEMB      120             0.0000000000
     17038       148  DOPC      H11Y          -20.8657457888      -29.9869033211       -6.7090237239  MEMB      120             0.0000000000
     17039       148  DOPC      C312          -19.9650305396      -29.9221466094       -4.7911745071  MEMB      120             0.0000000000
     17040       148  DOPC      H12X          -19.5855221745      -29.1141029547       -4.1298430845  MEMB      120             0.0000000000
     17041       148  DOPC      H12Y          -19.2291503620      -30.7540041152       -4.7626395083  MEMB      120             0.0000000000
     17042       148  DOPC      C313          -21.1945884738      -30.4287523670       -4.0378762264  MEMB      120             0.0000000000
     17043       148  DOPC      H13X          -22.0731233010      -29.7516274949       -3.9746336907  MEMB      120             0.0000000000
     17044       148  DOPC      H13Y          -21.5364529685      -31.2179506531       -4.7411661798  MEMB      120             0.0000000000
     17045       148  DOPC      C314          -20.9136985388      -30.8510618468       -2.5633328911  MEMB      120             0.0000000000
     17046       148  DOPC      H14X          -21.2070678391      -31.9207391211       -2.4997227302  MEMB      120             0.0000000000
     17047       148  DOPC      H14Y          -19.8353679097      -30.8421155472       -2.2960428690  MEMB      120             0.0000000000
     17048       148  DOPC      C315          -21.8509718855      -30.2316586304       -1.5388100834  MEMB      120             0.0000000000
     17049       148  DOPC      H15X          -22.8441903301      -30.2699790163       -2.0351667346  MEMB      120             0.0000000000
     17050       148  DOPC      H15Y          -21.6068707714      -29.1724836492       -1.3088435978  MEMB      120             0.0000000000
     17051       148  DOPC      C316          -21.8685737932      -30.9886864398       -0.2214145002  MEMB      120             0.0000000000
     17052       148  DOPC      H16X          -22.6099637695      -30.5678112130        0.4909950953  MEMB      120             0.0000000000
     17053       148  DOPC      H16Y          -22.2523056775      -32.0207311991       -0.3695813613  MEMB      120             0.0000000000
     17054       148  DOPC      C317          -20.4984062138      -31.1022597650        0.4655435214  MEMB      120             0.0000000000
     17055       148  DOPC      H17X          -19.8973255460      -31.7280049398       -0.2283337990  MEMB      120             0.0000000000
     17056       148  DOPC      H17Y          -19.9309642648      -30.1566879996        0.3305436442  MEMB      120             0.0000000000
     17057       148  DOPC      C318          -20.3415962773      -31.8592988835        1.7931356199  MEMB      120             0.0000000000
     17058       148  DOPC      H18X          -21.0990125447      -31.4424175277        2.4908831657  MEMB      120             0.0000000000
     17059       148  DOPC      H18Y          -20.6390022009      -32.9267593368        1.8731288906  MEMB      120             0.0000000000
     17060       148  DOPC      H18Z          -19.3177397695      -31.7406621700        2.2078209608  MEMB      120             0.0000000000
     17061       149  DOPC      N             -11.7541659030      -33.5408881388      -20.5883389464  MEMB      121             0.0000000000
     17062       149  DOPC      C12           -10.4770792846      -34.4291003464      -20.6664993224  MEMB      121             0.0000000000
     17063       149  DOPC      H12A           -9.9927665458      -34.2179021852      -21.6084317231  MEMB      121             0.0000000000
     17064       149  DOPC      H12B          -10.7904699810      -35.4624981958      -20.6499096779  MEMB      121             0.0000000000
     17065       149  DOPC      C13           -12.6379512671      -34.1678933776      -19.5017846737  MEMB      121             0.0000000000
     17066       149  DOPC      H13A          -12.7572280410      -35.1767503463      -19.8683642490  MEMB      121             0.0000000000
     17067       149  DOPC      H13B          -12.1371666387      -34.1746603536      -18.5449309941  MEMB      121             0.0000000000
     17068       149  DOPC      H13C          -13.5183296301      -33.5567841279      -19.3680710460  MEMB      121             0.0000000000
     17069       149  DOPC      C14           -12.4875821502      -33.6081335787      -21.8990155513  MEMB      121             0.0000000000
     17070       149  DOPC      H14A          -12.8204511012      -34.6121758247      -22.1169544866  MEMB      121             0.0000000000
     17071       149  DOPC      H14B          -13.3951522218      -33.0232635211      -21.9243825322  MEMB      121             0.0000000000
     17072       149  DOPC      H14C          -11.7742415027      -33.2953018375      -22.6471342877  MEMB      121             0.0000000000
     17073       149  DOPC      C15           -11.4192670701      -32.1052629235      -20.3813167669  MEMB      121             0.0000000000
     17074       149  DOPC      H15A          -12.3033965845      -31.5151738213      -20.5723928059  MEMB      121             0.0000000000
     17075       149  DOPC      H15B          -10.7458243116      -31.7069626940      -21.1257841896  MEMB      121             0.0000000000
     17076       149  DOPC      H15C          -10.9241864506      -31.9345426574      -19.4367798837  MEMB      121             0.0000000000
     17077       149  DOPC      C11            -9.3327293022      -34.1499042102      -19.6637899771  MEMB      121             0.0000000000
     17078       149  DOPC      H11A           -8.5478682671      -34.9024587933      -19.8917717379  MEMB      121             0.0000000000
     17079       149  DOPC      H11B           -8.8266862746      -33.1802965154      -19.8589885694  MEMB      121             0.0000000000
     17080       149  DOPC      P              -9.4261216196      -35.2042747317      -17.2083866236  MEMB      121             0.0000000000
     17081       149  DOPC      O13            -9.7828037956      -36.5391120265      -17.7164248613  MEMB      121             0.0000000000
     17082       149  DOPC      O14            -9.9646415220      -34.7303369019      -15.9195451669  MEMB      121             0.0000000000
     17083       149  DOPC      O12            -9.8793542759      -34.1871225273      -18.3140923280  MEMB      121             0.0000000000
     17084       149  DOPC      O11            -7.8132947045      -35.0486386436      -17.1408057837  MEMB      121             0.0000000000
     17085       149  DOPC      C1             -7.1859787069      -33.8053540676      -17.1534898394  MEMB      121             0.0000000000
     17086       149  DOPC      HA             -7.9550852201      -33.0090739101      -17.2469456307  MEMB      121             0.0000000000
     17087       149  DOPC      HB             -6.4852446482      -33.7811871517      -18.0152953704  MEMB      121             0.0000000000
     17088       149  DOPC      C2             -6.3257139420      -33.7062224431      -15.8086971471  MEMB      121             0.0000000000
     17089       149  DOPC      HS             -5.3193472550      -34.1411309883      -15.9887014382  MEMB      121             0.0000000000
     17090       149  DOPC      O21            -6.9749510446      -34.5160259782      -14.7682506621  MEMB      121             0.0000000000
     17091       149  DOPC      C21            -6.2684024173      -34.9387155956      -13.7392985736  MEMB      121             0.0000000000
     17092       149  DOPC      O22            -5.0278562669      -34.8590457279      -13.6102341295  MEMB      121             0.0000000000
     17093       149  DOPC      C22            -7.1146555951      -35.5585655848      -12.6700310759  MEMB      121             0.0000000000
     17094       149  DOPC      H2R            -6.9642548001      -36.6426214253      -12.8611429854  MEMB      121             0.0000000000
     17095       149  DOPC      H2S            -8.1748187417      -35.2355202239      -12.7475983932  MEMB      121             0.0000000000
     17096       149  DOPC      C3             -6.0512516432      -32.1584570644      -15.3266661455  MEMB      121             0.0000000000
     17097       149  DOPC      HX             -5.7929952980      -31.5071141019      -16.1888592684  MEMB      121             0.0000000000
     17098       149  DOPC      HY             -5.2965662069      -32.3423921093      -14.5323491882  MEMB      121             0.0000000000
     17099       149  DOPC      O31            -7.3164994204      -31.7058904809      -14.7848435678  MEMB      121             0.0000000000
     17100       149  DOPC      C31            -7.3053771718      -30.4805116890      -14.2206708738  MEMB      121             0.0000000000
     17101       149  DOPC      O32            -6.4898213080      -29.6184268402      -14.2988886821  MEMB      121             0.0000000000
     17102       149  DOPC      C32            -8.4770949765      -30.5151328904      -13.2983943130  MEMB      121             0.0000000000
     17103       149  DOPC      H2X            -8.7157649398      -29.4510570643      -13.0860259309  MEMB      121             0.0000000000
     17104       149  DOPC      H2Y            -9.4278899052      -30.8320644812      -13.7778361808  MEMB      121             0.0000000000
     17105       149  DOPC      C23            -6.6239017432      -35.1048352144      -11.2958232061  MEMB      121             0.0000000000
     17106       149  DOPC      H3R            -6.7655226243      -34.0087018223      -11.1828794650  MEMB      121             0.0000000000
     17107       149  DOPC      H3S            -5.5868125717      -35.4793539385      -11.1598006602  MEMB      121             0.0000000000
     17108       149  DOPC      C24            -7.3952608083      -35.7890807207      -10.1979707542  MEMB      121             0.0000000000
     17109       149  DOPC      H4R            -6.9550379732      -35.3479925358       -9.2782057767  MEMB      121             0.0000000000
     17110       149  DOPC      H4S            -7.0841600229      -36.8375427468      -10.0023559035  MEMB      121             0.0000000000
     17111       149  DOPC      C25            -8.9316985654      -35.4814790815      -10.1828687379  MEMB      121             0.0000000000
     17112       149  DOPC      H5R            -9.5451924346      -35.5417534611      -11.1071596231  MEMB      121             0.0000000000
     17113       149  DOPC      H5S            -8.9553121904      -34.4042765958       -9.9119484021  MEMB      121             0.0000000000
     17114       149  DOPC      C26            -9.5714246851      -36.3675378730       -9.1324410375  MEMB      121             0.0000000000
     17115       149  DOPC      H6R            -8.9090585943      -36.5715780903       -8.2641321993  MEMB      121             0.0000000000
     17116       149  DOPC      H6S            -9.8114465432      -37.3548588320       -9.5817820490  MEMB      121             0.0000000000
     17117       149  DOPC      C27           -10.9442279367      -35.7900244184       -8.5645357096  MEMB      121             0.0000000000
     17118       149  DOPC      H7R           -11.5440046746      -36.5789378829       -8.0623360319  MEMB      121             0.0000000000
     17119       149  DOPC      H7S           -11.5170451123      -35.4756033530       -9.4630572736  MEMB      121             0.0000000000
     17120       149  DOPC      C28           -10.8213549915      -34.4989901965       -7.7372529459  MEMB      121             0.0000000000
     17121       149  DOPC      H8R           -11.7981467208      -33.9749342823       -7.8118466733  MEMB      121             0.0000000000
     17122       149  DOPC      H8S           -10.0458507066      -33.7972874723       -8.1121229554  MEMB      121             0.0000000000
     17123       149  DOPC      C29           -10.4265919587      -34.7905607375       -6.3045581798  MEMB      121             0.0000000000
     17124       149  DOPC      H9R           -11.2523996266      -35.1088710028       -5.6513203292  MEMB      121             0.0000000000
     17125       149  DOPC      C210           -9.2757757812      -34.7315231198       -5.5868818585  MEMB      121             0.0000000000
     17126       149  DOPC      H10R           -9.3743436530      -34.8454393565       -4.4972459853  MEMB      121             0.0000000000
     17127       149  DOPC      C211           -7.8471448236      -34.3237844707       -5.9687644513  MEMB      121             0.0000000000
     17128       149  DOPC      H11R           -7.6406481561      -34.6545425739       -7.0090906081  MEMB      121             0.0000000000
     17129       149  DOPC      H11S           -7.1452890218      -34.9081448881       -5.3361172683  MEMB      121             0.0000000000
     17130       149  DOPC      C212           -7.3948863220      -32.8284080731       -5.9044538010  MEMB      121             0.0000000000
     17131       149  DOPC      H12R           -8.0816243396      -32.2406341423       -6.5503902304  MEMB      121             0.0000000000
     17132       149  DOPC      H12S           -6.3595016569      -32.7305544654       -6.2952534820  MEMB      121             0.0000000000
     17133       149  DOPC      C213           -7.3805669906      -32.2613473560       -4.4797062121  MEMB      121             0.0000000000
     17134       149  DOPC      H13R           -8.1855930441      -32.7002153341       -3.8522913788  MEMB      121             0.0000000000
     17135       149  DOPC      H13S           -7.3460069990      -31.1627777327       -4.6417909632  MEMB      121             0.0000000000
     17136       149  DOPC      C214           -6.0306030681      -32.4709244214       -3.7539029622  MEMB      121             0.0000000000
     17137       149  DOPC      H14R           -5.1846283533      -31.9815691817       -4.2822772347  MEMB      121             0.0000000000
     17138       149  DOPC      H14S           -5.6953180660      -33.5295359050       -3.7892129607  MEMB      121             0.0000000000
     17139       149  DOPC      C215           -6.1037834453      -31.9288163857       -2.3221466988  MEMB      121             0.0000000000
     17140       149  DOPC      H15R           -7.0058072231      -31.2828909013       -2.2633721039  MEMB      121             0.0000000000
     17141       149  DOPC      H15S           -5.1889376500      -31.3510304935       -2.0700701633  MEMB      121             0.0000000000
     17142       149  DOPC      C216           -6.1749382361      -32.9855253532       -1.2546092719  MEMB      121             0.0000000000
     17143       149  DOPC      H16R           -5.3312632476      -33.7063292480       -1.3091527562  MEMB      121             0.0000000000
     17144       149  DOPC      H16S           -7.1090416048      -33.4842711198       -1.5908006398  MEMB      121             0.0000000000
     17145       149  DOPC      C217           -6.3558304353      -32.3426588840        0.1016017271  MEMB      121             0.0000000000
     17146       149  DOPC      H17R           -7.2504409009      -31.6907148428        0.1962694748  MEMB      121             0.0000000000
     17147       149  DOPC      H17S           -5.5042813643      -31.6728240906        0.3475829372  MEMB      121             0.0000000000
     17148       149  DOPC      C218           -6.3367524248      -33.4168103756        1.1733611057  MEMB      121             0.0000000000
     17149       149  DOPC      H18R           -5.4484883304      -34.0839580160        1.1584637712  MEMB      121             0.0000000000
     17150       149  DOPC      H18S           -7.2166667270      -34.0857220245        1.0609834972  MEMB      121             0.0000000000
     17151       149  DOPC      H18T           -6.3408037469      -32.9338028829        2.1738653951  MEMB      121             0.0000000000
     17152       149  DOPC      C33            -8.1516147221      -31.3189179626      -11.9991461978  MEMB      121             0.0000000000
     17153       149  DOPC      H3X            -7.1606867924      -30.9106804348      -11.7063583009  MEMB      121             0.0000000000
     17154       149  DOPC      H3Y            -8.1438534689      -32.4263470828      -12.0878123042  MEMB      121             0.0000000000
     17155       149  DOPC      C34            -8.9544599525      -30.8240908832      -10.8106728925  MEMB      121             0.0000000000
     17156       149  DOPC      H4X            -9.7876404948      -31.5590240823      -10.8127263822  MEMB      121             0.0000000000
     17157       149  DOPC      H4Y            -9.2437800848      -29.7702758344      -11.0108946850  MEMB      121             0.0000000000
     17158       149  DOPC      C35            -8.1787914858      -30.7023580610       -9.5099968749  MEMB      121             0.0000000000
     17159       149  DOPC      H5X            -7.2200827875      -30.1551636417       -9.6356024656  MEMB      121             0.0000000000
     17160       149  DOPC      H5Y            -7.7050383822      -31.6850369072       -9.2997087459  MEMB      121             0.0000000000
     17161       149  DOPC      C36            -8.8512885873      -30.0885161480       -8.2893908046  MEMB      121             0.0000000000
     17162       149  DOPC      H6X            -9.6822836760      -30.7577686957       -7.9797634309  MEMB      121             0.0000000000
     17163       149  DOPC      H6Y            -8.1006199126      -29.9986937586       -7.4752970242  MEMB      121             0.0000000000
     17164       149  DOPC      C37            -9.4307749515      -28.7176541978       -8.6693676505  MEMB      121             0.0000000000
     17165       149  DOPC      H7X            -8.7521337310      -27.9334583174       -9.0678698412  MEMB      121             0.0000000000
     17166       149  DOPC      H7Y           -10.1966775446      -28.8093570500       -9.4689340536  MEMB      121             0.0000000000
     17167       149  DOPC      C38           -10.1598144556      -28.1179572306       -7.3943744737  MEMB      121             0.0000000000
     17168       149  DOPC      H8X           -10.8763253049      -28.8198416350       -6.9165763963  MEMB      121             0.0000000000
     17169       149  DOPC      H8Y           -10.7634239014      -27.2720262320       -7.7872831922  MEMB      121             0.0000000000
     17170       149  DOPC      C39            -9.1902830873      -27.5675499638       -6.3303489740  MEMB      121             0.0000000000
     17171       149  DOPC      H9X            -8.2990133151      -27.0619661691       -6.7303784574  MEMB      121             0.0000000000
     17172       149  DOPC      C310           -9.1351505389      -27.6623444637       -5.0035464143  MEMB      121             0.0000000000
     17173       149  DOPC      H10X           -8.2821628991      -27.2316819781       -4.4586228247  MEMB      121             0.0000000000
     17174       149  DOPC      C311          -10.2071618771      -28.4135675986       -4.2160920080  MEMB      121             0.0000000000
     17175       149  DOPC      H11X          -11.0810318779      -28.9070542742       -4.6926873287  MEMB      121             0.0000000000
     17176       149  DOPC      H11Y          -10.7518695979      -27.6912261539       -3.5712373127  MEMB      121             0.0000000000
     17177       149  DOPC      C312           -9.5722997042      -29.5247088661       -3.3323683194  MEMB      121             0.0000000000
     17178       149  DOPC      H12X           -8.8381263678      -29.0794150696       -2.6273692574  MEMB      121             0.0000000000
     17179       149  DOPC      H12Y           -9.1131613410      -30.3521618393       -3.9144635253  MEMB      121             0.0000000000
     17180       149  DOPC      C313          -10.6134022577      -30.2855315163       -2.5501784253  MEMB      121             0.0000000000
     17181       149  DOPC      H13X          -11.2206682188      -29.6392149266       -1.8809821675  MEMB      121             0.0000000000
     17182       149  DOPC      H13Y          -11.2865755835      -30.8252091125       -3.2501127341  MEMB      121             0.0000000000
     17183       149  DOPC      C314           -9.9476974937      -31.2697154395       -1.4621935516  MEMB      121             0.0000000000
     17184       149  DOPC      H14X           -9.3536425009      -32.1065283084       -1.8878268278  MEMB      121             0.0000000000
     17185       149  DOPC      H14Y           -9.3242344384      -30.5233669227       -0.9249970683  MEMB      121             0.0000000000
     17186       149  DOPC      C315          -10.9868448072      -31.8449581681       -0.4734994496  MEMB      121             0.0000000000
     17187       149  DOPC      H15X          -11.5013870620      -30.9060862424       -0.1767044408  MEMB      121             0.0000000000
     17188       149  DOPC      H15Y          -10.5146958368      -32.3250795424        0.4101750993  MEMB      121             0.0000000000
     17189       149  DOPC      C316          -11.8084450380      -33.0817780936       -1.1113848760  MEMB      121             0.0000000000
     17190       149  DOPC      H16X          -12.3253589561      -33.5936575417       -0.2716812552  MEMB      121             0.0000000000
     17191       149  DOPC      H16Y          -12.6099988435      -32.6547126276       -1.7512646688  MEMB      121             0.0000000000
     17192       149  DOPC      C317          -11.0260261126      -34.0873508902       -1.8748891417  MEMB      121             0.0000000000
     17193       149  DOPC      H17X          -11.7574304140      -34.8495458074       -2.2190215821  MEMB      121             0.0000000000
     17194       149  DOPC      H17Y          -10.6296119682      -33.5952360321       -2.7886717786  MEMB      121             0.0000000000
     17195       149  DOPC      C318           -9.9152097092      -34.8926737163       -1.2118434457  MEMB      121             0.0000000000
     17196       149  DOPC      H18X           -9.1881936759      -34.2462549077       -0.6752690777  MEMB      121             0.0000000000
     17197       149  DOPC      H18Y          -10.3002634748      -35.6778236478       -0.5265739543  MEMB      121             0.0000000000
     17198       149  DOPC      H18Z           -9.3076052472      -35.4555189071       -1.9523455931  MEMB      121             0.0000000000
     17199       150  DOPC      N              36.5424493469      -13.6600363528      -17.9288689126  MEMB      122             0.0000000000
     17200       150  DOPC      C12            35.4459382359      -14.6667608849      -17.5114677467  MEMB      122             0.0000000000
     17201       150  DOPC      H12A           35.2050889607      -14.5080217604      -16.4707018527  MEMB      122             0.0000000000
     17202       150  DOPC      H12B           35.8905385851      -15.6509700900      -17.5035372864  MEMB      122             0.0000000000
     17203       150  DOPC      C13            37.2875626563      -14.1636387774      -19.0887494217  MEMB      122             0.0000000000
     17204       150  DOPC      H13A           38.2458704634      -13.6688677201      -19.1457382003  MEMB      122             0.0000000000
     17205       150  DOPC      H13B           37.5336579288      -15.1783502724      -18.8127099789  MEMB      122             0.0000000000
     17206       150  DOPC      H13C           36.6356153311      -13.9762905380      -19.9291453680  MEMB      122             0.0000000000
     17207       150  DOPC      C14            37.5010665288      -13.5489004529      -16.7577834853  MEMB      122             0.0000000000
     17208       150  DOPC      H14A           36.9061063113      -13.2711316773      -15.9003064303  MEMB      122             0.0000000000
     17209       150  DOPC      H14B           37.9308009405      -14.5296221427      -16.6166696618  MEMB      122             0.0000000000
     17210       150  DOPC      H14C           38.2641843850      -12.8198999886      -16.9871517766  MEMB      122             0.0000000000
     17211       150  DOPC      C15            36.0026370145      -12.2875343818      -18.3053960461  MEMB      122             0.0000000000
     17212       150  DOPC      H15A           35.3584205192      -12.4144645889      -19.1628772381  MEMB      122             0.0000000000
     17213       150  DOPC      H15B           36.8199848123      -11.6027855756      -18.4770395579  MEMB      122             0.0000000000
     17214       150  DOPC      H15C           35.3593776358      -11.9352242526      -17.5126193463  MEMB      122             0.0000000000
     17215       150  DOPC      C11            34.1654647190      -14.8762371667      -18.3089159316  MEMB      122             0.0000000000
     17216       150  DOPC      H11A           33.6067256067      -15.5944172694      -17.6714608413  MEMB      122             0.0000000000
     17217       150  DOPC      H11B           33.6340453000      -13.9033973053      -18.2347736642  MEMB      122             0.0000000000
     17218       150  DOPC      P              33.4064047240      -16.4912295773      -20.2628871346  MEMB      122             0.0000000000
     17219       150  DOPC      O13            33.6691409448      -16.3701684239      -21.6921333919  MEMB      122             0.0000000000
     17220       150  DOPC      O14            32.0403475763      -16.4325910700      -19.7432502642  MEMB      122             0.0000000000
     17221       150  DOPC      O12            34.3175491970      -15.3283990448      -19.6341823748  MEMB      122             0.0000000000
     17222       150  DOPC      O11            34.1271526219      -17.8096226789      -19.7663652907  MEMB      122             0.0000000000
     17223       150  DOPC      C1             35.4659361754      -18.0327414386      -19.5130454157  MEMB      122             0.0000000000
     17224       150  DOPC      HA             36.0813024818      -17.1231881697      -19.6814442669  MEMB      122             0.0000000000
     17225       150  DOPC      HB             35.8369309315      -18.6964284517      -20.3231091991  MEMB      122             0.0000000000
     17226       150  DOPC      C2             35.7826876767      -18.7377209302      -18.1831350420  MEMB      122             0.0000000000
     17227       150  DOPC      HS             35.3685642739      -19.7659944911      -18.2571377507  MEMB      122             0.0000000000
     17228       150  DOPC      O21            35.1353023406      -17.9870379859      -17.1565333849  MEMB      122             0.0000000000
     17229       150  DOPC      C21            34.3660747475      -18.5975101247      -16.2585593895  MEMB      122             0.0000000000
     17230       150  DOPC      O22            34.1006332451      -19.8039235185      -16.3285856422  MEMB      122             0.0000000000
     17231       150  DOPC      C22            33.8700754327      -17.6288340401      -15.2365927376  MEMB      122             0.0000000000
     17232       150  DOPC      H2R            33.2022558820      -18.1238970821      -14.4995373333  MEMB      122             0.0000000000
     17233       150  DOPC      H2S            33.3296288147      -16.7097312116      -15.5488236539  MEMB      122             0.0000000000
     17234       150  DOPC      C3             37.2727657386      -18.7742455596      -17.8848651172  MEMB      122             0.0000000000
     17235       150  DOPC      HX             37.6243187573      -17.7206391801      -17.9102658636  MEMB      122             0.0000000000
     17236       150  DOPC      HY             37.9530923045      -19.2432579918      -18.6274981381  MEMB      122             0.0000000000
     17237       150  DOPC      O31            37.5546405927      -19.3064831280      -16.5586928520  MEMB      122             0.0000000000
     17238       150  DOPC      C31            38.8707279080      -19.2799431972      -16.2744544411  MEMB      122             0.0000000000
     17239       150  DOPC      O32            39.7248949494      -18.8601644990      -16.9812545944  MEMB      122             0.0000000000
     17240       150  DOPC      C32            38.9963064893      -19.5421382649      -14.7338384307  MEMB      122             0.0000000000
     17241       150  DOPC      H2X            38.0123427738      -19.5201887715      -14.2184215187  MEMB      122             0.0000000000
     17242       150  DOPC      H2Y            39.2559980683      -20.5843620229      -14.4498479463  MEMB      122             0.0000000000
     17243       150  DOPC      C23            35.0750857309      -17.2389403635      -14.2530190758  MEMB      122             0.0000000000
     17244       150  DOPC      H3R            35.8125089588      -16.7567125734      -14.9297643814  MEMB      122             0.0000000000
     17245       150  DOPC      H3S            35.5956285073      -18.1652775232      -13.9285878888  MEMB      122             0.0000000000
     17246       150  DOPC      C24            34.8016644340      -16.2194450875      -13.1943525552  MEMB      122             0.0000000000
     17247       150  DOPC      H4R            34.0177367083      -16.6520598225      -12.5366118984  MEMB      122             0.0000000000
     17248       150  DOPC      H4S            34.4023623993      -15.3004740527      -13.6743221598  MEMB      122             0.0000000000
     17249       150  DOPC      C25            36.1205913752      -15.9783268834      -12.4925168479  MEMB      122             0.0000000000
     17250       150  DOPC      H5R            36.9643344961      -15.6757763743      -13.1489327484  MEMB      122             0.0000000000
     17251       150  DOPC      H5S            36.5211560657      -16.8885119898      -11.9971054792  MEMB      122             0.0000000000
     17252       150  DOPC      C26            36.0014054811      -14.8211043413      -11.5230863270  MEMB      122             0.0000000000
     17253       150  DOPC      H6R            35.0090264124      -14.9303665018      -11.0356779823  MEMB      122             0.0000000000
     17254       150  DOPC      H6S            35.8784231312      -13.8975715738      -12.1282998422  MEMB      122             0.0000000000
     17255       150  DOPC      C27            37.0414940688      -14.6416475443      -10.4624954603  MEMB      122             0.0000000000
     17256       150  DOPC      H7R            38.0503757853      -14.6255366762      -10.9274889107  MEMB      122             0.0000000000
     17257       150  DOPC      H7S            36.9771355597      -15.4792851002       -9.7354859228  MEMB      122             0.0000000000
     17258       150  DOPC      C28            36.8336832635      -13.2656352746       -9.8237971599  MEMB      122             0.0000000000
     17259       150  DOPC      H8R            36.9726208889      -12.5018387514      -10.6185498748  MEMB      122             0.0000000000
     17260       150  DOPC      H8S            37.7111954452      -13.1053183804       -9.1615340777  MEMB      122             0.0000000000
     17261       150  DOPC      C29            35.5094227313      -12.9262516972       -9.0983228801  MEMB      122             0.0000000000
     17262       150  DOPC      H9R            34.8973772310      -12.3098409173       -9.7731844492  MEMB      122             0.0000000000
     17263       150  DOPC      C210           35.1875950505      -13.3596145648       -7.8739879249  MEMB      122             0.0000000000
     17264       150  DOPC      H10R           34.2080681091      -13.0020301185       -7.5237595712  MEMB      122             0.0000000000
     17265       150  DOPC      C211           36.0772039247      -14.2218036167       -6.9986167828  MEMB      122             0.0000000000
     17266       150  DOPC      H11R           36.3660954303      -13.5872743650       -6.1336114027  MEMB      122             0.0000000000
     17267       150  DOPC      H11S           37.0565469557      -14.4719748293       -7.4597266986  MEMB      122             0.0000000000
     17268       150  DOPC      C212           35.3858060527      -15.5271770084       -6.4864181692  MEMB      122             0.0000000000
     17269       150  DOPC      H12R           36.0658706714      -16.3338010664       -6.1382951893  MEMB      122             0.0000000000
     17270       150  DOPC      H12S           34.7552041884      -15.9685010372       -7.2876020511  MEMB      122             0.0000000000
     17271       150  DOPC      C213           34.4688023541      -15.2374578083       -5.3207216559  MEMB      122             0.0000000000
     17272       150  DOPC      H13R           34.0374169883      -16.2401556830       -5.1137794576  MEMB      122             0.0000000000
     17273       150  DOPC      H13S           33.7151134668      -14.4765382814       -5.6161447092  MEMB      122             0.0000000000
     17274       150  DOPC      C214           35.1772237141      -14.7877622406       -4.1028466400  MEMB      122             0.0000000000
     17275       150  DOPC      H14R           34.5389241614      -14.8034766010       -3.1936446657  MEMB      122             0.0000000000
     17276       150  DOPC      H14S           35.5736764800      -13.7634400406       -4.2699097583  MEMB      122             0.0000000000
     17277       150  DOPC      C215           36.3636344562      -15.6458027671       -3.6687438933  MEMB      122             0.0000000000
     17278       150  DOPC      H15R           37.1305102015      -15.7402486676       -4.4670561831  MEMB      122             0.0000000000
     17279       150  DOPC      H15S           35.9894938318      -16.6544735374       -3.3913932208  MEMB      122             0.0000000000
     17280       150  DOPC      C216           37.0613456746      -15.1149292742       -2.3905978918  MEMB      122             0.0000000000
     17281       150  DOPC      H16R           37.2268523342      -14.0185337200       -2.4602103612  MEMB      122             0.0000000000
     17282       150  DOPC      H16S           37.9979791421      -15.7113502279       -2.3542531145  MEMB      122             0.0000000000
     17283       150  DOPC      C217           36.2824652913      -15.2443958849       -1.0169880554  MEMB      122             0.0000000000
     17284       150  DOPC      H17R           35.3411564349      -14.6785949632       -1.1847036378  MEMB      122             0.0000000000
     17285       150  DOPC      H17S           36.9286360627      -14.8272634447       -0.2152500745  MEMB      122             0.0000000000
     17286       150  DOPC      C218           35.8319174435      -16.6946190349       -0.6688002748  MEMB      122             0.0000000000
     17287       150  DOPC      H18R           35.4757239418      -16.9082625625        0.3616365760  MEMB      122             0.0000000000
     17288       150  DOPC      H18S           36.7215275631      -17.3502418578       -0.7831405635  MEMB      122             0.0000000000
     17289       150  DOPC      H18T           35.0106307183      -17.0923622619       -1.3025274820  MEMB      122             0.0000000000
     17290       150  DOPC      C33            39.8989200857      -18.5181954714      -14.0426522199  MEMB      122             0.0000000000
     17291       150  DOPC      H3X            39.6879597297      -17.4723021368      -14.3523676539  MEMB      122             0.0000000000
     17292       150  DOPC      H3Y            40.9585388190      -18.6512747962      -14.3489512539  MEMB      122             0.0000000000
     17293       150  DOPC      C34            39.7925077370      -18.5623197259      -12.4507560689  MEMB      122             0.0000000000
     17294       150  DOPC      H4X            40.4489865289      -19.4108394750      -12.1620159811  MEMB      122             0.0000000000
     17295       150  DOPC      H4Y            38.8134127887      -18.8474631350      -12.0098616833  MEMB      122             0.0000000000
     17296       150  DOPC      C35            40.1105266200      -17.1898687952      -11.7921004856  MEMB      122             0.0000000000
     17297       150  DOPC      H5X            39.4673168623      -16.3950445344      -12.2266770932  MEMB      122             0.0000000000
     17298       150  DOPC      H5Y            41.1834269086      -17.0019996009      -12.0109875396  MEMB      122             0.0000000000
     17299       150  DOPC      C36            40.1676080714      -17.1187651840      -10.2964455639  MEMB      122             0.0000000000
     17300       150  DOPC      H6X            40.4218150487      -16.0707353124      -10.0293629487  MEMB      122             0.0000000000
     17301       150  DOPC      H6Y            39.1222864733      -17.2115354194       -9.9317293963  MEMB      122             0.0000000000
     17302       150  DOPC      C37            41.0484736894      -18.2064937989       -9.6418982903  MEMB      122             0.0000000000
     17303       150  DOPC      H7X            40.9071951049      -19.2485434482      -10.0003586105  MEMB      122             0.0000000000
     17304       150  DOPC      H7Y            42.0984213787      -17.9982982821       -9.9395314993  MEMB      122             0.0000000000
     17305       150  DOPC      C38            41.0484498937      -18.2359495385       -8.1054714053  MEMB      122             0.0000000000
     17306       150  DOPC      H8X            41.6587949226      -17.3925771093       -7.7174987976  MEMB      122             0.0000000000
     17307       150  DOPC      H8Y            41.5800988719      -19.1564731699       -7.7825063714  MEMB      122             0.0000000000
     17308       150  DOPC      C39            39.7010226538      -18.4355431532       -7.4640693389  MEMB      122             0.0000000000
     17309       150  DOPC      H9X            38.9583848648      -18.8442908992       -8.1650784199  MEMB      122             0.0000000000
     17310       150  DOPC      C310           39.3497366236      -18.1275843950       -6.1726274142  MEMB      122             0.0000000000
     17311       150  DOPC      H10X           38.3315970596      -18.2948660369       -5.7913018260  MEMB      122             0.0000000000
     17312       150  DOPC      C311           40.1836558905      -17.4923347086       -5.0950822689  MEMB      122             0.0000000000
     17313       150  DOPC      H11X           39.5886182970      -16.6330382000       -4.7184381082  MEMB      122             0.0000000000
     17314       150  DOPC      H11Y           41.0944791050      -16.9986287515       -5.4963011103  MEMB      122             0.0000000000
     17315       150  DOPC      C312           40.6139807597      -18.5232180930       -4.0207492734  MEMB      122             0.0000000000
     17316       150  DOPC      H12X           40.9008633095      -17.9107885972       -3.1393016326  MEMB      122             0.0000000000
     17317       150  DOPC      H12Y           41.4472441976      -19.2247181818       -4.2395876086  MEMB      122             0.0000000000
     17318       150  DOPC      C313           39.5796391942      -19.5907045338       -3.5438549481  MEMB      122             0.0000000000
     17319       150  DOPC      H13X           39.3209556211      -20.2693008949       -4.3846357725  MEMB      122             0.0000000000
     17320       150  DOPC      H13Y           39.9977460897      -20.2312925952       -2.7381546222  MEMB      122             0.0000000000
     17321       150  DOPC      C314           38.2666682296      -18.9172982052       -2.9544532059  MEMB      122             0.0000000000
     17322       150  DOPC      H14X           38.4382595930      -18.2556735699       -2.0785929953  MEMB      122             0.0000000000
     17323       150  DOPC      H14Y           37.9301282740      -18.2091691880       -3.7416101396  MEMB      122             0.0000000000
     17324       150  DOPC      C315           37.2899118522      -20.0887037408       -2.6612449201  MEMB      122             0.0000000000
     17325       150  DOPC      H15X           37.0918643397      -20.6786284582       -3.5816183327  MEMB      122             0.0000000000
     17326       150  DOPC      H15Y           36.2944727440      -19.6784257247       -2.3872123703  MEMB      122             0.0000000000
     17327       150  DOPC      C316           37.7473668571      -21.0442279377       -1.4470862191  MEMB      122             0.0000000000
     17328       150  DOPC      H16X           38.6728746980      -21.5487303964       -1.7981326277  MEMB      122             0.0000000000
     17329       150  DOPC      H16Y           37.9866250837      -20.4288475051       -0.5535633908  MEMB      122             0.0000000000
     17330       150  DOPC      C317           36.7397190785      -22.1558172530       -1.2105048831  MEMB      122             0.0000000000
     17331       150  DOPC      H17X           36.9896500380      -22.7374776631       -0.2975283982  MEMB      122             0.0000000000
     17332       150  DOPC      H17Y           35.7556971569      -21.6723921501       -1.0307218464  MEMB      122             0.0000000000
     17333       150  DOPC      C318           36.3503857432      -22.9821102836       -2.3832848407  MEMB      122             0.0000000000
     17334       150  DOPC      H18X           35.7023763706      -22.4384768791       -3.1036099567  MEMB      122             0.0000000000
     17335       150  DOPC      H18Y           37.2594504524      -23.3226849619       -2.9235916448  MEMB      122             0.0000000000
     17336       150  DOPC      H18Z           35.7233011081      -23.8702851003       -2.1547446681  MEMB      122             0.0000000000
     17337       151  DOPC      N             -24.7694420358      -28.0752824778      -17.9179820054  MEMB      123             0.0000000000
     17338       151  DOPC      C12           -26.0422002645      -28.9061649841      -18.2522368479  MEMB      123             0.0000000000
     17339       151  DOPC      H12A          -26.7177074666      -28.6616150277      -17.4458341505  MEMB      123             0.0000000000
     17340       151  DOPC      H12B          -25.8019026004      -29.9146161080      -17.9494441049  MEMB      123             0.0000000000
     17341       151  DOPC      C13           -24.2534103719      -28.4981162695      -16.5931476761  MEMB      123             0.0000000000
     17342       151  DOPC      H13A          -24.9896570127      -28.4041688296      -15.8086001454  MEMB      123             0.0000000000
     17343       151  DOPC      H13B          -23.9460097038      -29.5286748557      -16.6924148374  MEMB      123             0.0000000000
     17344       151  DOPC      H13C          -23.4699684268      -27.7890838518      -16.3697828403  MEMB      123             0.0000000000
     17345       151  DOPC      C14           -25.1082762475      -26.5604261265      -17.8828261161  MEMB      123             0.0000000000
     17346       151  DOPC      H14A          -25.8130286510      -26.5044411584      -17.0663766529  MEMB      123             0.0000000000
     17347       151  DOPC      H14B          -24.2781819302      -25.9727062513      -17.5196064035  MEMB      123             0.0000000000
     17348       151  DOPC      H14C          -25.6637885797      -26.3611837676      -18.7873196131  MEMB      123             0.0000000000
     17349       151  DOPC      C15           -23.6449779725      -28.4306768032      -18.9506695176  MEMB      123             0.0000000000
     17350       151  DOPC      H15A          -23.6208071984      -29.4883511403      -19.1677888028  MEMB      123             0.0000000000
     17351       151  DOPC      H15B          -22.7166672114      -28.0624649068      -18.5395019962  MEMB      123             0.0000000000
     17352       151  DOPC      H15C          -23.9462591619      -27.8783807946      -19.8285070607  MEMB      123             0.0000000000
     17353       151  DOPC      C11           -26.7588326303      -28.7838381822      -19.6268251038  MEMB      123             0.0000000000
     17354       151  DOPC      H11A          -25.9889411122      -28.7756623833      -20.4277752735  MEMB      123             0.0000000000
     17355       151  DOPC      H11B          -27.3212729808      -29.7303711953      -19.7753405581  MEMB      123             0.0000000000
     17356       151  DOPC      P             -29.0500788705      -27.4779911737      -19.9937275977  MEMB      123             0.0000000000
     17357       151  DOPC      O13           -29.3037340758      -27.2665255068      -21.4116169685  MEMB      123             0.0000000000
     17358       151  DOPC      O14           -29.5663222835      -26.4807054294      -19.0274348531  MEMB      123             0.0000000000
     17359       151  DOPC      O12           -27.4711223415      -27.5904535119      -19.7954234659  MEMB      123             0.0000000000
     17360       151  DOPC      O11           -29.6494408073      -28.9168680377      -19.5481098452  MEMB      123             0.0000000000
     17361       151  DOPC      C1            -30.7233108501      -29.0002051172      -18.6008448708  MEMB      123             0.0000000000
     17362       151  DOPC      HA            -31.6477659244      -29.4452179914      -19.0270689199  MEMB      123             0.0000000000
     17363       151  DOPC      HB            -31.1159595812      -28.0341574096      -18.2175696693  MEMB      123             0.0000000000
     17364       151  DOPC      C2            -30.1410723643      -29.7378175883      -17.3398177133  MEMB      123             0.0000000000
     17365       151  DOPC      HS            -31.0463694049      -29.7637499401      -16.6963225662  MEMB      123             0.0000000000
     17366       151  DOPC      O21           -29.1796555754      -28.9095204515      -16.7102560718  MEMB      123             0.0000000000
     17367       151  DOPC      C21           -29.7142578301      -27.7496511731      -16.1601585073  MEMB      123             0.0000000000
     17368       151  DOPC      O22           -30.8981267393      -27.4776624409      -15.8997247676  MEMB      123             0.0000000000
     17369       151  DOPC      C22           -28.6628285493      -26.6681387462      -15.9463890178  MEMB      123             0.0000000000
     17370       151  DOPC      H2R           -28.8572617719      -25.7910810399      -16.6000607213  MEMB      123             0.0000000000
     17371       151  DOPC      H2S           -27.6468521227      -27.0230843951      -16.2222993835  MEMB      123             0.0000000000
     17372       151  DOPC      C3            -29.4737521068      -31.1728352051      -17.6049720730  MEMB      123             0.0000000000
     17373       151  DOPC      HX            -28.4851765143      -31.1960355545      -18.1114313952  MEMB      123             0.0000000000
     17374       151  DOPC      HY            -30.2629000283      -31.6582315064      -18.2181255621  MEMB      123             0.0000000000
     17375       151  DOPC      O31           -29.5578773887      -31.9824606005      -16.3840069192  MEMB      123             0.0000000000
     17376       151  DOPC      C31           -28.5104191746      -31.7094777570      -15.7007752218  MEMB      123             0.0000000000
     17377       151  DOPC      O32           -27.5024299363      -31.1586568564      -16.1010239912  MEMB      123             0.0000000000
     17378       151  DOPC      C32           -28.8348853605      -32.2065914222      -14.2878093227  MEMB      123             0.0000000000
     17379       151  DOPC      H2X           -29.8049345023      -31.7357240105      -14.0202100361  MEMB      123             0.0000000000
     17380       151  DOPC      H2Y           -28.8643061041      -33.3043145117      -14.1191098710  MEMB      123             0.0000000000
     17381       151  DOPC      C23           -28.6987092526      -26.0844713514      -14.5099932279  MEMB      123             0.0000000000
     17382       151  DOPC      H3R           -28.4854610489      -26.8141805932      -13.6998264972  MEMB      123             0.0000000000
     17383       151  DOPC      H3S           -29.7415042320      -25.7138814950      -14.4122048906  MEMB      123             0.0000000000
     17384       151  DOPC      C24           -27.6720879918      -25.0073378274      -14.2300973494  MEMB      123             0.0000000000
     17385       151  DOPC      H4R           -28.0282510029      -24.3142792155      -13.4381764020  MEMB      123             0.0000000000
     17386       151  DOPC      H4S           -27.5226932652      -24.3664942801      -15.1252629983  MEMB      123             0.0000000000
     17387       151  DOPC      C25           -26.3054110151      -25.4567865929      -13.7708204051  MEMB      123             0.0000000000
     17388       151  DOPC      H5R           -25.6594489476      -24.5541069110      -13.8179741075  MEMB      123             0.0000000000
     17389       151  DOPC      H5S           -25.7626429049      -26.2136535819      -14.3765234653  MEMB      123             0.0000000000
     17390       151  DOPC      C26           -26.2855772544      -25.8672337876      -12.3126136508  MEMB      123             0.0000000000
     17391       151  DOPC      H6R           -26.5504286820      -26.9372024274      -12.1735397334  MEMB      123             0.0000000000
     17392       151  DOPC      H6S           -27.0632864214      -25.3156847312      -11.7422775117  MEMB      123             0.0000000000
     17393       151  DOPC      C27           -24.8611833714      -25.6053361135      -11.7742586564  MEMB      123             0.0000000000
     17394       151  DOPC      H7R           -24.6428676205      -24.5190557617      -11.6926866306  MEMB      123             0.0000000000
     17395       151  DOPC      H7S           -24.1910152186      -25.9654637932      -12.5838905714  MEMB      123             0.0000000000
     17396       151  DOPC      C28           -24.6674460371      -26.3022244255      -10.3970430484  MEMB      123             0.0000000000
     17397       151  DOPC      H8R           -25.1070912386      -27.3199809889      -10.3248995145  MEMB      123             0.0000000000
     17398       151  DOPC      H8S           -25.2117796370      -25.6647040114       -9.6679417471  MEMB      123             0.0000000000
     17399       151  DOPC      C29           -23.2327301930      -26.4279146126       -9.9842072987  MEMB      123             0.0000000000
     17400       151  DOPC      H9R           -22.7468955304      -25.4772850128      -10.2492889610  MEMB      123             0.0000000000
     17401       151  DOPC      C210          -22.4306056557      -27.2731216959       -9.3579642360  MEMB      123             0.0000000000
     17402       151  DOPC      H10R          -21.3676577902      -27.0350820475       -9.2047349229  MEMB      123             0.0000000000
     17403       151  DOPC      C211          -22.9587976366      -28.5535969342       -8.8016867330  MEMB      123             0.0000000000
     17404       151  DOPC      H11R          -22.1770252655      -29.3337517505       -8.9221504676  MEMB      123             0.0000000000
     17405       151  DOPC      H11S          -23.8363532032      -28.9399738195       -9.3628726802  MEMB      123             0.0000000000
     17406       151  DOPC      C212          -23.2148016462      -28.4199922428       -7.3222634970  MEMB      123             0.0000000000
     17407       151  DOPC      H12R          -24.1821697303      -27.9042884276       -7.1417932728  MEMB      123             0.0000000000
     17408       151  DOPC      H12S          -22.3434690526      -27.8765808694       -6.8982285935  MEMB      123             0.0000000000
     17409       151  DOPC      C213          -23.2533526478      -29.8033834411       -6.6120254274  MEMB      123             0.0000000000
     17410       151  DOPC      H13R          -22.3067683770      -30.3231589117       -6.8730483510  MEMB      123             0.0000000000
     17411       151  DOPC      H13S          -24.1214068207      -30.3302056083       -7.0628705862  MEMB      123             0.0000000000
     17412       151  DOPC      C214          -23.4128343890      -29.6647647873       -5.0722921574  MEMB      123             0.0000000000
     17413       151  DOPC      H14R          -24.2872494255      -29.0409067476       -4.7885311787  MEMB      123             0.0000000000
     17414       151  DOPC      H14S          -22.4976806335      -29.2020832876       -4.6448110255  MEMB      123             0.0000000000
     17415       151  DOPC      C215          -23.6264644073      -31.0862750278       -4.4492721239  MEMB      123             0.0000000000
     17416       151  DOPC      H15R          -22.6691704712      -31.6496405391       -4.4722659857  MEMB      123             0.0000000000
     17417       151  DOPC      H15S          -24.4385230321      -31.6238132866       -4.9840001796  MEMB      123             0.0000000000
     17418       151  DOPC      C216          -23.8873630758      -30.9559025674       -2.9459845228  MEMB      123             0.0000000000
     17419       151  DOPC      H16R          -24.7231118819      -30.2806496480       -2.6633576080  MEMB      123             0.0000000000
     17420       151  DOPC      H16S          -23.1011701031      -30.5606716933       -2.2677420648  MEMB      123             0.0000000000
     17421       151  DOPC      C217          -24.3031652174      -32.3436577466       -2.3786416288  MEMB      123             0.0000000000
     17422       151  DOPC      H17R          -24.4563987195      -32.2470946439       -1.2825037175  MEMB      123             0.0000000000
     17423       151  DOPC      H17S          -23.4804176409      -33.0804469902       -2.4992609557  MEMB      123             0.0000000000
     17424       151  DOPC      C218          -25.5084793178      -32.9695203821       -3.1619195722  MEMB      123             0.0000000000
     17425       151  DOPC      H18R          -26.3909623155      -32.3122331314       -3.3152761472  MEMB      123             0.0000000000
     17426       151  DOPC      H18S          -25.9195718854      -33.8322274285       -2.5952962688  MEMB      123             0.0000000000
     17427       151  DOPC      H18T          -25.2265672616      -33.2515124807       -4.1988997370  MEMB      123             0.0000000000
     17428       151  DOPC      C33           -27.8657913830      -31.5829635654      -13.2584796134  MEMB      123             0.0000000000
     17429       151  DOPC      H3X           -27.9908346988      -30.4846264641      -13.3695682930  MEMB      123             0.0000000000
     17430       151  DOPC      H3Y           -26.8319269017      -31.8263398687      -13.5843831554  MEMB      123             0.0000000000
     17431       151  DOPC      C34           -28.1892380425      -32.0268594625      -11.8050224465  MEMB      123             0.0000000000
     17432       151  DOPC      H4X           -28.1622399675      -33.1345054073      -11.7230950615  MEMB      123             0.0000000000
     17433       151  DOPC      H4Y           -29.2162112261      -31.7642525770      -11.4723298299  MEMB      123             0.0000000000
     17434       151  DOPC      C35           -27.1678273687      -31.3744412664      -10.8169767449  MEMB      123             0.0000000000
     17435       151  DOPC      H5X           -27.1532957539      -30.2694051953      -10.9310191901  MEMB      123             0.0000000000
     17436       151  DOPC      H5Y           -26.1277172934      -31.7649208283      -10.8211852988  MEMB      123             0.0000000000
     17437       151  DOPC      C36           -27.7161748155      -31.6060966397       -9.3906320067  MEMB      123             0.0000000000
     17438       151  DOPC      H6X           -28.7308446600      -31.1832855220       -9.2293968309  MEMB      123             0.0000000000
     17439       151  DOPC      H6Y           -27.7628209005      -32.7079969970       -9.2566158412  MEMB      123             0.0000000000
     17440       151  DOPC      C37           -26.9561026745      -31.0544388069       -8.1425156156  MEMB      123             0.0000000000
     17441       151  DOPC      H7X           -27.4780165666      -31.5137092458       -7.2759140576  MEMB      123             0.0000000000
     17442       151  DOPC      H7Y           -25.9429042055      -31.5102125544       -8.1470224382  MEMB      123             0.0000000000
     17443       151  DOPC      C38           -26.8111940746      -29.5548033764       -8.1242264418  MEMB      123             0.0000000000
     17444       151  DOPC      H8X           -26.2624556840      -29.2723197423       -9.0480277187  MEMB      123             0.0000000000
     17445       151  DOPC      H8Y           -26.0301228542      -29.0957084379       -7.4812019073  MEMB      123             0.0000000000
     17446       151  DOPC      C39           -28.1086394318      -28.7668785316       -7.8445411763  MEMB      123             0.0000000000
     17447       151  DOPC      H9X           -28.9401637482      -28.8498281817       -8.5598637719  MEMB      123             0.0000000000
     17448       151  DOPC      C310          -28.2735441236      -28.1201510151       -6.6848734200  MEMB      123             0.0000000000
     17449       151  DOPC      H10X          -29.3097716766      -27.8407313598       -6.4437163427  MEMB      123             0.0000000000
     17450       151  DOPC      C311          -27.3523507474      -28.0092174642       -5.4380858850  MEMB      123             0.0000000000
     17451       151  DOPC      H11X          -27.7267063226      -27.0740239592       -4.9694799291  MEMB      123             0.0000000000
     17452       151  DOPC      H11Y          -26.2983668849      -27.8943220538       -5.7701076968  MEMB      123             0.0000000000
     17453       151  DOPC      C312          -27.4605390037      -29.1542652787       -4.3262779219  MEMB      123             0.0000000000
     17454       151  DOPC      H12X          -26.7717899972      -28.9283938727       -3.4842994398  MEMB      123             0.0000000000
     17455       151  DOPC      H12Y          -27.3078657094      -30.1672735446       -4.7561918162  MEMB      123             0.0000000000
     17456       151  DOPC      C313          -28.8610800602      -29.3540518922       -3.7867969836  MEMB      123             0.0000000000
     17457       151  DOPC      H13X          -29.4562151585      -28.4164594961       -3.7543020012  MEMB      123             0.0000000000
     17458       151  DOPC      H13Y          -29.5558211115      -29.9329773408       -4.4321657587  MEMB      123             0.0000000000
     17459       151  DOPC      C314          -28.8834490600      -30.0871246754       -2.3988609186  MEMB      123             0.0000000000
     17460       151  DOPC      H14X          -29.9446130561      -30.2823860257       -2.1340492575  MEMB      123             0.0000000000
     17461       151  DOPC      H14Y          -28.2717886919      -31.0010819342       -2.5565783612  MEMB      123             0.0000000000
     17462       151  DOPC      C315          -28.3977707983      -29.2015613080       -1.2717805417  MEMB      123             0.0000000000
     17463       151  DOPC      H15X          -28.6778821432      -28.1430593657       -1.4600138906  MEMB      123             0.0000000000
     17464       151  DOPC      H15Y          -27.2974026418      -29.3085692743       -1.1619590943  MEMB      123             0.0000000000
     17465       151  DOPC      C316          -28.7870200407      -29.5527815676        0.1721550709  MEMB      123             0.0000000000
     17466       151  DOPC      H16X          -29.7613339309      -29.0773359365        0.4150231844  MEMB      123             0.0000000000
     17467       151  DOPC      H16Y          -29.0400235904      -30.6335836403        0.2188197140  MEMB      123             0.0000000000
     17468       151  DOPC      C317          -27.7264393834      -29.3285401996        1.2529434203  MEMB      123             0.0000000000
     17469       151  DOPC      H17X          -26.7710456294      -29.7299553639        0.8524318445  MEMB      123             0.0000000000
     17470       151  DOPC      H17Y          -27.4482147216      -28.2682994169        1.4340550467  MEMB      123             0.0000000000
     17471       151  DOPC      C318          -28.0680209905      -29.9992005043        2.6367236970  MEMB      123             0.0000000000
     17472       151  DOPC      H18X          -27.2836911880      -29.7143717764        3.3702216038  MEMB      123             0.0000000000
     17473       151  DOPC      H18Y          -29.1065773491      -29.9111154852        3.0213818507  MEMB      123             0.0000000000
     17474       151  DOPC      H18Z          -27.9500105639      -31.1018036954        2.5684574484  MEMB      123             0.0000000000
     17475       152  DOPC      N              30.5347139412       23.2616215923      -20.0057303382  MEMB      124             0.0000000000
     17476       152  DOPC      C12            31.1186171714       21.9186398183      -20.1230770465  MEMB      124             0.0000000000
     17477       152  DOPC      H12A           32.0418229562       21.9689779754      -20.6812501010  MEMB      124             0.0000000000
     17478       152  DOPC      H12B           30.4917501843       21.3172816664      -20.7647982237  MEMB      124             0.0000000000
     17479       152  DOPC      C13            30.4474332179       23.8569861526      -21.4642722223  MEMB      124             0.0000000000
     17480       152  DOPC      H13A           31.4651927903       24.0671570237      -21.7582004348  MEMB      124             0.0000000000
     17481       152  DOPC      H13B           30.1458292481       23.1128025587      -22.1865088104  MEMB      124             0.0000000000
     17482       152  DOPC      H13C           29.8645444589       24.7643559833      -21.4066452161  MEMB      124             0.0000000000
     17483       152  DOPC      C14            31.4156064267       24.1990065601      -19.1893052095  MEMB      124             0.0000000000
     17484       152  DOPC      H14A           30.7659777029       24.8955532015      -18.6801831165  MEMB      124             0.0000000000
     17485       152  DOPC      H14B           31.8332333911       23.7528057206      -18.2988600234  MEMB      124             0.0000000000
     17486       152  DOPC      H14C           32.2442345032       24.6276515670      -19.7333997824  MEMB      124             0.0000000000
     17487       152  DOPC      C15            29.0923382203       23.2395771260      -19.4096804028  MEMB      124             0.0000000000
     17488       152  DOPC      H15A           29.1154105163       22.9551008852      -18.3680753969  MEMB      124             0.0000000000
     17489       152  DOPC      H15B           28.5138846539       22.4930516462      -19.9335995602  MEMB      124             0.0000000000
     17490       152  DOPC      H15C           28.5575313300       24.1774043448      -19.3803279176  MEMB      124             0.0000000000
     17491       152  DOPC      C11            31.3289045444       21.0029547891      -18.8976847405  MEMB      124             0.0000000000
     17492       152  DOPC      H11A           31.5955829821       19.9903247128      -19.2688775151  MEMB      124             0.0000000000
     17493       152  DOPC      H11B           32.2651298156       21.5018647775      -18.5676968007  MEMB      124             0.0000000000
     17494       152  DOPC      P              29.2156089108       19.9542347896      -18.0341084147  MEMB      124             0.0000000000
     17495       152  DOPC      O13            29.7030839558       18.7021173852      -18.5781408035  MEMB      124             0.0000000000
     17496       152  DOPC      O14            27.9803185529       20.3875008937      -18.7826711400  MEMB      124             0.0000000000
     17497       152  DOPC      O12            30.3541548060       21.0670422758      -18.0035773441  MEMB      124             0.0000000000
     17498       152  DOPC      O11            28.7731434568       19.7444915560      -16.5117523768  MEMB      124             0.0000000000
     17499       152  DOPC      C1             27.8378241259       20.5974164703      -15.8660999138  MEMB      124             0.0000000000
     17500       152  DOPC      HA             27.6490636765       20.3038893155      -14.8113333599  MEMB      124             0.0000000000
     17501       152  DOPC      HB             26.8829706891       20.6878323365      -16.4268142135  MEMB      124             0.0000000000
     17502       152  DOPC      C2             28.3980921624       22.0450937105      -15.4623091596  MEMB      124             0.0000000000
     17503       152  DOPC      HS             28.5627620596       22.4953864318      -16.4645274322  MEMB      124             0.0000000000
     17504       152  DOPC      O21            29.6605692767       21.8267551053      -14.7013723726  MEMB      124             0.0000000000
     17505       152  DOPC      C21            30.5643900242       22.8137616663      -14.8047624607  MEMB      124             0.0000000000
     17506       152  DOPC      O22            30.5192289530       23.7885161125      -15.5354433485  MEMB      124             0.0000000000
     17507       152  DOPC      C22            31.6626399037       22.6593918137      -13.7290022356  MEMB      124             0.0000000000
     17508       152  DOPC      H2R            31.9619690013       23.6474916673      -13.3186587292  MEMB      124             0.0000000000
     17509       152  DOPC      H2S            32.6472772967       22.4203523939      -14.1847108752  MEMB      124             0.0000000000
     17510       152  DOPC      C3             27.3356235994       22.7347612801      -14.5594792721  MEMB      124             0.0000000000
     17511       152  DOPC      HX             27.0200039086       22.0384859837      -13.7533120684  MEMB      124             0.0000000000
     17512       152  DOPC      HY             26.4537344663       22.8949435854      -15.2159349846  MEMB      124             0.0000000000
     17513       152  DOPC      O31            27.8313001676       23.9893850595      -14.0102653245  MEMB      124             0.0000000000
     17514       152  DOPC      C31            27.0167974639       24.4529630806      -13.0373743161  MEMB      124             0.0000000000
     17515       152  DOPC      O32            25.9420154479       23.9886753536      -12.7240814288  MEMB      124             0.0000000000
     17516       152  DOPC      C32            27.5258997069       25.8081592888      -12.4038010179  MEMB      124             0.0000000000
     17517       152  DOPC      H2X            27.8107475495       26.4646214092      -13.2536481817  MEMB      124             0.0000000000
     17518       152  DOPC      H2Y            26.7124021476       26.3931327415      -11.9238552361  MEMB      124             0.0000000000
     17519       152  DOPC      C23            31.2905017337       21.6319656072      -12.6598950384  MEMB      124             0.0000000000
     17520       152  DOPC      H3R            31.4835837200       20.6819957185      -13.2026633852  MEMB      124             0.0000000000
     17521       152  DOPC      H3S            30.2315425748       21.7954637187      -12.3663053785  MEMB      124             0.0000000000
     17522       152  DOPC      C24            32.1938486329       21.7409403552      -11.4271894208  MEMB      124             0.0000000000
     17523       152  DOPC      H4R            32.0100417121       22.7315170363      -10.9589011305  MEMB      124             0.0000000000
     17524       152  DOPC      H4S            33.2730884739       21.7583854328      -11.6903589127  MEMB      124             0.0000000000
     17525       152  DOPC      C25            32.1215099137       20.4166614843      -10.4989962797  MEMB      124             0.0000000000
     17526       152  DOPC      H5R            32.5455447481       19.5090150012      -10.9793018694  MEMB      124             0.0000000000
     17527       152  DOPC      H5S            31.0372570831       20.2323759343      -10.3416562336  MEMB      124             0.0000000000
     17528       152  DOPC      C26            32.7034800037       20.5577393363       -9.1059107173  MEMB      124             0.0000000000
     17529       152  DOPC      H6R            33.8084367644       20.4488803899       -9.1451646724  MEMB      124             0.0000000000
     17530       152  DOPC      H6S            32.1854126942       19.7649494783       -8.5250399460  MEMB      124             0.0000000000
     17531       152  DOPC      C27            32.5129545950       21.9671588564       -8.4703030082  MEMB      124             0.0000000000
     17532       152  DOPC      H7R            31.4356826640       22.1892388904       -8.6267850140  MEMB      124             0.0000000000
     17533       152  DOPC      H7S            33.1903618792       22.6930990330       -8.9687520262  MEMB      124             0.0000000000
     17534       152  DOPC      C28            32.8775694943       22.1277462469       -6.9520373108  MEMB      124             0.0000000000
     17535       152  DOPC      H8R            33.9683792112       21.9269603320       -6.8876941814  MEMB      124             0.0000000000
     17536       152  DOPC      H8S            32.3923583931       21.2238161862       -6.5256550688  MEMB      124             0.0000000000
     17537       152  DOPC      C29            32.5766492601       23.4568881008       -6.3191363422  MEMB      124             0.0000000000
     17538       152  DOPC      H9R            33.3880596984       24.1864778690       -6.4581044052  MEMB      124             0.0000000000
     17539       152  DOPC      C210           31.5761995349       23.6567124874       -5.4064619470  MEMB      124             0.0000000000
     17540       152  DOPC      H10R           31.3686044059       24.6113783672       -4.9009742379  MEMB      124             0.0000000000
     17541       152  DOPC      C211           30.5711045869       22.6410406001       -4.8764155788  MEMB      124             0.0000000000
     17542       152  DOPC      H11R           30.8281182715       21.6374338245       -5.2777121570  MEMB      124             0.0000000000
     17543       152  DOPC      H11S           29.5489266109       22.9433612577       -5.1895860549  MEMB      124             0.0000000000
     17544       152  DOPC      C212           30.7500989041       22.6375869467       -3.3556120797  MEMB      124             0.0000000000
     17545       152  DOPC      H12R           30.7770051608       23.6497374944       -2.8982845882  MEMB      124             0.0000000000
     17546       152  DOPC      H12S           31.7438568030       22.2332488122       -3.0670349043  MEMB      124             0.0000000000
     17547       152  DOPC      C213           29.6351331405       21.7712988873       -2.8153265411  MEMB      124             0.0000000000
     17548       152  DOPC      H13R           29.5483163194       20.7497349296       -3.2433354920  MEMB      124             0.0000000000
     17549       152  DOPC      H13S           28.7466765353       22.3834296075       -3.0803960360  MEMB      124             0.0000000000
     17550       152  DOPC      C214           29.6619140878       21.4995490867       -1.2547547820  MEMB      124             0.0000000000
     17551       152  DOPC      H14R           29.7261971211       22.4947652006       -0.7651299763  MEMB      124             0.0000000000
     17552       152  DOPC      H14S           30.6014955168       20.9956579043       -0.9423430188  MEMB      124             0.0000000000
     17553       152  DOPC      C215           28.5478785205       20.6430568454       -0.6909267310  MEMB      124             0.0000000000
     17554       152  DOPC      H15R           28.6572097576       19.6055417245       -1.0729341263  MEMB      124             0.0000000000
     17555       152  DOPC      H15S           27.5833792489       20.9887785898       -1.1205055904  MEMB      124             0.0000000000
     17556       152  DOPC      C216           28.3980702422       20.5868868263        0.8224170564  MEMB      124             0.0000000000
     17557       152  DOPC      H16R           29.3675782528       20.2388753281        1.2386660891  MEMB      124             0.0000000000
     17558       152  DOPC      H16S           27.6803340571       19.7926990782        1.1198089194  MEMB      124             0.0000000000
     17559       152  DOPC      C217           28.0254440509       21.8344788505        1.6331755136  MEMB      124             0.0000000000
     17560       152  DOPC      H17R           26.9914768055       22.1268170446        1.3507378092  MEMB      124             0.0000000000
     17561       152  DOPC      H17S           28.6369104289       22.6973860156        1.2928503317  MEMB      124             0.0000000000
     17562       152  DOPC      C218           28.2887939103       21.7284987322        3.1416875630  MEMB      124             0.0000000000
     17563       152  DOPC      H18R           29.3594743987       21.4513196671        3.2472149955  MEMB      124             0.0000000000
     17564       152  DOPC      H18S           27.6388473355       20.9756390447        3.6367547909  MEMB      124             0.0000000000
     17565       152  DOPC      H18T           28.1266587846       22.6678663602        3.7123194736  MEMB      124             0.0000000000
     17566       152  DOPC      C33            28.5929102766       25.4948130327      -11.3384005436  MEMB      124             0.0000000000
     17567       152  DOPC      H3X            28.9710765089       26.3711378207      -10.7697472000  MEMB      124             0.0000000000
     17568       152  DOPC      H3Y            29.4721698707       24.9288163669      -11.7137282371  MEMB      124             0.0000000000
     17569       152  DOPC      C34            28.0158540989       24.5970484147      -10.2515247009  MEMB      124             0.0000000000
     17570       152  DOPC      H4X            28.2440116265       23.5810273678      -10.6387795236  MEMB      124             0.0000000000
     17571       152  DOPC      H4Y            26.9320402277       24.7908570697      -10.1028428143  MEMB      124             0.0000000000
     17572       152  DOPC      C35            28.6232082241       24.8637957046       -8.8929054567  MEMB      124             0.0000000000
     17573       152  DOPC      H5X            28.5914426510       25.9731781856       -8.8420862180  MEMB      124             0.0000000000
     17574       152  DOPC      H5Y            29.6657595225       24.4855907148       -8.9590035368  MEMB      124             0.0000000000
     17575       152  DOPC      C36            28.0258706736       24.1848785441       -7.7244315352  MEMB      124             0.0000000000
     17576       152  DOPC      H6X            27.9291814865       23.0828563746       -7.8269956860  MEMB      124             0.0000000000
     17577       152  DOPC      H6Y            28.7744576147       24.2027690359       -6.9036891469  MEMB      124             0.0000000000
     17578       152  DOPC      C37            26.6469406047       24.8606185163       -7.2219175792  MEMB      124             0.0000000000
     17579       152  DOPC      H7X            25.9371704333       24.6797535438       -8.0572823279  MEMB      124             0.0000000000
     17580       152  DOPC      H7Y            26.3700029829       24.2259545444       -6.3531087455  MEMB      124             0.0000000000
     17581       152  DOPC      C38            26.6851648518       26.3503403340       -6.8766543423  MEMB      124             0.0000000000
     17582       152  DOPC      H8X            25.8622461898       26.4343785454       -6.1349922651  MEMB      124             0.0000000000
     17583       152  DOPC      H8Y            26.3878247271       26.9782527474       -7.7436239672  MEMB      124             0.0000000000
     17584       152  DOPC      C39            27.8735716610       26.9182080082       -6.1839525758  MEMB      124             0.0000000000
     17585       152  DOPC      H9X            28.3609189366       27.6686503361       -6.8237405490  MEMB      124             0.0000000000
     17586       152  DOPC      C310           28.5046469308       26.5470530912       -5.0469296533  MEMB      124             0.0000000000
     17587       152  DOPC      H10X           29.4696664727       26.9908338553       -4.7609296769  MEMB      124             0.0000000000
     17588       152  DOPC      C311           28.1000270112       25.4181033936       -4.1397788443  MEMB      124             0.0000000000
     17589       152  DOPC      H11X           28.9061919339       24.6578349288       -4.0597100961  MEMB      124             0.0000000000
     17590       152  DOPC      H11Y           27.3365051577       24.7302733313       -4.5619691913  MEMB      124             0.0000000000
     17591       152  DOPC      C312           27.5457783654       25.8038370451       -2.7892268667  MEMB      124             0.0000000000
     17592       152  DOPC      H12X           27.1609489637       24.8737352365       -2.3189741087  MEMB      124             0.0000000000
     17593       152  DOPC      H12Y           26.6939288357       26.5065441975       -2.9111937849  MEMB      124             0.0000000000
     17594       152  DOPC      C313           28.5478605593       26.5933194223       -1.9555399436  MEMB      124             0.0000000000
     17595       152  DOPC      H13X           28.7437922665       27.6053149408       -2.3700240038  MEMB      124             0.0000000000
     17596       152  DOPC      H13Y           27.9952455595       26.7922214643       -1.0124736672  MEMB      124             0.0000000000
     17597       152  DOPC      C314           29.8888895970       26.0053283718       -1.8212575563  MEMB      124             0.0000000000
     17598       152  DOPC      H14X           29.6943083622       25.0362810491       -1.3139054574  MEMB      124             0.0000000000
     17599       152  DOPC      H14Y           30.4099639189       25.8714857443       -2.7933106431  MEMB      124             0.0000000000
     17600       152  DOPC      C315           30.8482867828       26.7624889714       -0.8538476018  MEMB      124             0.0000000000
     17601       152  DOPC      H15X           30.3261445907       27.0142595403        0.0939386908  MEMB      124             0.0000000000
     17602       152  DOPC      H15Y           31.0419124394       27.7865216238       -1.2387993813  MEMB      124             0.0000000000
     17603       152  DOPC      C316           32.1016647243       26.0158893191       -0.4245956333  MEMB      124             0.0000000000
     17604       152  DOPC      H16X           32.7899874253       26.6334122623        0.1911962575  MEMB      124             0.0000000000
     17605       152  DOPC      H16Y           31.7553139432       25.1300305764        0.1495261173  MEMB      124             0.0000000000
     17606       152  DOPC      C317           32.9464007630       25.5867157042       -1.6250961792  MEMB      124             0.0000000000
     17607       152  DOPC      H17X           32.2203973273       25.0435400744       -2.2671251528  MEMB      124             0.0000000000
     17608       152  DOPC      H17Y           33.3316578603       26.4387039948       -2.2251069517  MEMB      124             0.0000000000
     17609       152  DOPC      C318           34.0449600236       24.5105498618       -1.2404491656  MEMB      124             0.0000000000
     17610       152  DOPC      H18X           33.5651927093       23.6883092907       -0.6676805415  MEMB      124             0.0000000000
     17611       152  DOPC      H18Y           34.5678674797       24.2554612110       -2.1869274327  MEMB      124             0.0000000000
     17612       152  DOPC      H18Z           34.7941281899       25.0456740543       -0.6185886733  MEMB      124             0.0000000000
     17613       153  DOPC      N             -33.7581967338       17.3965837792      -19.4211705284  MEMB      125             0.0000000000
     17614       153  DOPC      C12           -33.3485209021       18.8920559820      -19.1401694492  MEMB      125             0.0000000000
     17615       153  DOPC      H12A          -34.1979737905       19.2576738403      -18.5823582713  MEMB      125             0.0000000000
     17616       153  DOPC      H12B          -33.2394409447       19.3077239656      -20.1309881998  MEMB      125             0.0000000000
     17617       153  DOPC      C13           -33.9291304935       16.6315506907      -18.0529500093  MEMB      125             0.0000000000
     17618       153  DOPC      H13A          -34.3591481206       15.6697047639      -18.2903046867  MEMB      125             0.0000000000
     17619       153  DOPC      H13B          -32.9603823775       16.5750724755      -17.5788852450  MEMB      125             0.0000000000
     17620       153  DOPC      H13C          -34.6361437278       17.2311390042      -17.4988505588  MEMB      125             0.0000000000
     17621       153  DOPC      C14           -32.8177147450       16.7574831832      -20.3649562064  MEMB      125             0.0000000000
     17622       153  DOPC      H14A          -32.6166406191       17.3075061461      -21.2723944213  MEMB      125             0.0000000000
     17623       153  DOPC      H14B          -31.9069510343       16.6091619774      -19.8037875711  MEMB      125             0.0000000000
     17624       153  DOPC      H14C          -33.1039542076       15.7349901882      -20.5623776270  MEMB      125             0.0000000000
     17625       153  DOPC      C15           -35.2278675924       17.4094710754      -19.9862103040  MEMB      125             0.0000000000
     17626       153  DOPC      H15A          -35.3678789006       17.5625668231      -21.0460965457  MEMB      125             0.0000000000
     17627       153  DOPC      H15B          -35.6038680950       18.2034996835      -19.3580842846  MEMB      125             0.0000000000
     17628       153  DOPC      H15C          -35.7794658586       16.5230926828      -19.7096734209  MEMB      125             0.0000000000
     17629       153  DOPC      C11           -32.0672822651       19.4160848858      -18.4330945848  MEMB      125             0.0000000000
     17630       153  DOPC      H11A          -32.2693648989       20.5084897515      -18.4214647338  MEMB      125             0.0000000000
     17631       153  DOPC      H11B          -31.9786335506       18.9107389516      -17.4476566842  MEMB      125             0.0000000000
     17632       153  DOPC      P             -29.7129467090       18.3476719475      -18.8167105454  MEMB      125             0.0000000000
     17633       153  DOPC      O13           -28.6215820252       18.2332143204      -19.7862663209  MEMB      125             0.0000000000
     17634       153  DOPC      O14           -30.1943823971       17.1064202420      -18.1522610616  MEMB      125             0.0000000000
     17635       153  DOPC      O12           -30.9160021303       19.2678118361      -19.2845725985  MEMB      125             0.0000000000
     17636       153  DOPC      O11           -29.1809981055       19.2006708524      -17.5616383953  MEMB      125             0.0000000000
     17637       153  DOPC      C1            -28.1695072760       18.6316510938      -16.6754274363  MEMB      125             0.0000000000
     17638       153  DOPC      HA            -27.2484063354       19.2472878032      -16.7584077767  MEMB      125             0.0000000000
     17639       153  DOPC      HB            -27.9036225713       17.6168505493      -17.0412228062  MEMB      125             0.0000000000
     17640       153  DOPC      C2            -28.6414814549       18.5560375295      -15.1992401100  MEMB      125             0.0000000000
     17641       153  DOPC      HS            -27.7631345966       18.3082584525      -14.5656522272  MEMB      125             0.0000000000
     17642       153  DOPC      O21           -29.7624722371       17.5950351326      -15.0016694093  MEMB      125             0.0000000000
     17643       153  DOPC      C21           -29.3599284102       16.2868773573      -14.9052663637  MEMB      125             0.0000000000
     17644       153  DOPC      O22           -28.2160049199       15.9851937864      -14.9050709640  MEMB      125             0.0000000000
     17645       153  DOPC      C22           -30.5829405059       15.4024993857      -14.5990103097  MEMB      125             0.0000000000
     17646       153  DOPC      H2R           -30.2764890436       14.3745341099      -14.3097083471  MEMB      125             0.0000000000
     17647       153  DOPC      H2S           -31.3923047269       15.2938128150      -15.3522952189  MEMB      125             0.0000000000
     17648       153  DOPC      C3            -29.1543876002       19.9325513621      -14.5932478066  MEMB      125             0.0000000000
     17649       153  DOPC      HX            -29.9554490316       20.2139025650      -15.3098110488  MEMB      125             0.0000000000
     17650       153  DOPC      HY            -28.3433815235       20.6917900269      -14.5811315557  MEMB      125             0.0000000000
     17651       153  DOPC      O31           -29.7696277642       19.8968940342      -13.2753541514  MEMB      125             0.0000000000
     17652       153  DOPC      C31           -28.8591956012       20.1327987307      -12.2973853277  MEMB      125             0.0000000000
     17653       153  DOPC      O32           -27.6517142499       20.0631768571      -12.3127106659  MEMB      125             0.0000000000
     17654       153  DOPC      C32           -29.6502145910       20.4221024073      -11.0592126461  MEMB      125             0.0000000000
     17655       153  DOPC      H2X           -28.9409782153       20.4566893550      -10.2047484138  MEMB      125             0.0000000000
     17656       153  DOPC      H2Y           -29.9897454401       21.4724117817      -11.1852683360  MEMB      125             0.0000000000
     17657       153  DOPC      C23           -31.3131908386       15.9150158976      -13.3327161507  MEMB      125             0.0000000000
     17658       153  DOPC      H3R           -32.2604053767       15.3350263697      -13.3059262304  MEMB      125             0.0000000000
     17659       153  DOPC      H3S           -31.6759286240       16.9536795631      -13.4873766562  MEMB      125             0.0000000000
     17660       153  DOPC      C24           -30.5234787578       15.7716308863      -12.0373681746  MEMB      125             0.0000000000
     17661       153  DOPC      H4R           -31.1842844585       16.1909673691      -11.2488164804  MEMB      125             0.0000000000
     17662       153  DOPC      H4S           -29.5283549337       16.2654321972      -12.0228815222  MEMB      125             0.0000000000
     17663       153  DOPC      C25           -30.3838389179       14.3076624294      -11.5899086563  MEMB      125             0.0000000000
     17664       153  DOPC      H5R           -29.6297861404       13.7638785986      -12.1982051854  MEMB      125             0.0000000000
     17665       153  DOPC      H5S           -31.3584283871       13.8073313278      -11.7747474005  MEMB      125             0.0000000000
     17666       153  DOPC      C26           -30.2393710356       14.0575879865      -10.0378586967  MEMB      125             0.0000000000
     17667       153  DOPC      H6R           -30.6129753930       13.0940924440       -9.6299165742  MEMB      125             0.0000000000
     17668       153  DOPC      H6S           -30.7924136153       14.8920383766       -9.5560324977  MEMB      125             0.0000000000
     17669       153  DOPC      C27           -28.8285638640       14.4173552500       -9.5013611636  MEMB      125             0.0000000000
     17670       153  DOPC      H7R           -28.5750627304       15.2739325314      -10.1619165508  MEMB      125             0.0000000000
     17671       153  DOPC      H7S           -28.1323504662       13.5789597459       -9.7174632379  MEMB      125             0.0000000000
     17672       153  DOPC      C28           -28.7682017776       14.8163812646       -8.0055888041  MEMB      125             0.0000000000
     17673       153  DOPC      H8R           -29.2244892865       14.0502190108       -7.3429291446  MEMB      125             0.0000000000
     17674       153  DOPC      H8S           -29.3777392813       15.7416881431       -7.9243948417  MEMB      125             0.0000000000
     17675       153  DOPC      C29           -27.3681481569       15.0534248406       -7.5843264302  MEMB      125             0.0000000000
     17676       153  DOPC      H9R           -26.9605041514       14.2384906168       -6.9681225660  MEMB      125             0.0000000000
     17677       153  DOPC      C210          -26.5186623942       16.1620252338       -7.7195332129  MEMB      125             0.0000000000
     17678       153  DOPC      H10R          -25.4932912165       16.1640116316       -7.3212742224  MEMB      125             0.0000000000
     17679       153  DOPC      C211          -26.9266675909       17.4300029566       -8.4122567276  MEMB      125             0.0000000000
     17680       153  DOPC      H11R          -28.0139792567       17.5016225700       -8.6289238768  MEMB      125             0.0000000000
     17681       153  DOPC      H11S          -26.3765284016       17.4465990985       -9.3773436387  MEMB      125             0.0000000000
     17682       153  DOPC      C212          -26.6318463801       18.7985054667       -7.6692925965  MEMB      125             0.0000000000
     17683       153  DOPC      H12R          -26.8056847921       19.6239059116       -8.3923528831  MEMB      125             0.0000000000
     17684       153  DOPC      H12S          -25.6014402260       19.0349975856       -7.3277433678  MEMB      125             0.0000000000
     17685       153  DOPC      C213          -27.6395588175       18.9870036697       -6.5134239589  MEMB      125             0.0000000000
     17686       153  DOPC      H13R          -28.6632862245       18.9975911190       -6.9449226932  MEMB      125             0.0000000000
     17687       153  DOPC      H13S          -27.4619718582       20.0554524587       -6.2660357861  MEMB      125             0.0000000000
     17688       153  DOPC      C214          -27.4125026938       18.0808498387       -5.2509372317  MEMB      125             0.0000000000
     17689       153  DOPC      H14R          -26.3306352675       18.1624156548       -5.0117080617  MEMB      125             0.0000000000
     17690       153  DOPC      H14S          -27.5953689141       17.0122100342       -5.4936102321  MEMB      125             0.0000000000
     17691       153  DOPC      C215          -28.3257832478       18.4485838543       -4.0640570524  MEMB      125             0.0000000000
     17692       153  DOPC      H15R          -28.3395088409       19.5214001909       -3.7756161327  MEMB      125             0.0000000000
     17693       153  DOPC      H15S          -27.8784213821       17.9092827810       -3.2018831769  MEMB      125             0.0000000000
     17694       153  DOPC      C216          -29.7571488243       17.8359951248       -4.2833537665  MEMB      125             0.0000000000
     17695       153  DOPC      H16R          -29.6660204605       16.8716793781       -4.8275158042  MEMB      125             0.0000000000
     17696       153  DOPC      H16S          -30.4281612244       18.5737686953       -4.7730005823  MEMB      125             0.0000000000
     17697       153  DOPC      C217          -30.3945046019       17.6401290366       -2.9322201343  MEMB      125             0.0000000000
     17698       153  DOPC      H17R          -31.4673805705       17.3939495624       -3.0827330548  MEMB      125             0.0000000000
     17699       153  DOPC      H17S          -30.2553814038       18.6127141296       -2.4135258204  MEMB      125             0.0000000000
     17700       153  DOPC      C218          -29.8486078254       16.5834287330       -1.9500113602  MEMB      125             0.0000000000
     17701       153  DOPC      H18R          -28.8310117765       16.8348702102       -1.5817771407  MEMB      125             0.0000000000
     17702       153  DOPC      H18S          -29.9893930179       15.5916312657       -2.4304678094  MEMB      125             0.0000000000
     17703       153  DOPC      H18T          -30.4758050324       16.6079843513       -1.0333102919  MEMB      125             0.0000000000
     17704       153  DOPC      C33           -30.9830151289       19.6609736795      -10.8805669248  MEMB      125             0.0000000000
     17705       153  DOPC      H3X           -30.9606391967       18.6435990722      -11.3264019957  MEMB      125             0.0000000000
     17706       153  DOPC      H3Y           -31.7166134993       20.1743961959      -11.5382532233  MEMB      125             0.0000000000
     17707       153  DOPC      C34           -31.3920336078       19.5601942444       -9.3638048286  MEMB      125             0.0000000000
     17708       153  DOPC      H4X           -31.2197037589       20.5896122767       -8.9831183390  MEMB      125             0.0000000000
     17709       153  DOPC      H4Y           -30.5728702473       18.9580152606       -8.9158390382  MEMB      125             0.0000000000
     17710       153  DOPC      C35           -32.7497127480       18.9639230413       -9.1705808084  MEMB      125             0.0000000000
     17711       153  DOPC      H5X           -32.7096446224       18.5449628460       -8.1423850449  MEMB      125             0.0000000000
     17712       153  DOPC      H5Y           -32.8363123181       18.0366133750       -9.7763191412  MEMB      125             0.0000000000
     17713       153  DOPC      C36           -33.9323679282       19.8139908603       -9.5792861504  MEMB      125             0.0000000000
     17714       153  DOPC      H6X           -34.1012000090       19.8317154077      -10.6772395417  MEMB      125             0.0000000000
     17715       153  DOPC      H6Y           -34.8954764004       19.4260690743       -9.1839894493  MEMB      125             0.0000000000
     17716       153  DOPC      C37           -33.8615393491       21.2821983287       -9.1905802330  MEMB      125             0.0000000000
     17717       153  DOPC      H7X           -33.0962181539       21.8203128577       -9.7897772056  MEMB      125             0.0000000000
     17718       153  DOPC      H7Y           -34.7395691593       21.7476787047       -9.6872821856  MEMB      125             0.0000000000
     17719       153  DOPC      C38           -33.6869416752       21.6198487693       -7.6693084677  MEMB      125             0.0000000000
     17720       153  DOPC      H8X           -33.5058706524       22.7152582803       -7.6291572839  MEMB      125             0.0000000000
     17721       153  DOPC      H8Y           -32.8704655442       21.0269795750       -7.2043420023  MEMB      125             0.0000000000
     17722       153  DOPC      C39           -35.0624098396       21.4452373949       -7.0672726094  MEMB      125             0.0000000000
     17723       153  DOPC      H9X           -35.8685963653       21.8994832076       -7.6620203340  MEMB      125             0.0000000000
     17724       153  DOPC      C310          -35.2939647169       20.7914796720       -5.9190389556  MEMB      125             0.0000000000
     17725       153  DOPC      H10X          -36.3168721780       20.9609651078       -5.5517036420  MEMB      125             0.0000000000
     17726       153  DOPC      C311          -34.3186441211       20.0991515682       -4.9630212967  MEMB      125             0.0000000000
     17727       153  DOPC      H11X          -33.3568278648       19.7671714796       -5.4091374307  MEMB      125             0.0000000000
     17728       153  DOPC      H11Y          -34.7723776891       19.1163883500       -4.7127756566  MEMB      125             0.0000000000
     17729       153  DOPC      C312          -33.8420767400       20.7479613459       -3.6242634459  MEMB      125             0.0000000000
     17730       153  DOPC      H12X          -33.2364675577       19.9952628089       -3.0756253126  MEMB      125             0.0000000000
     17731       153  DOPC      H12Y          -34.7125224977       21.0293626646       -2.9938202921  MEMB      125             0.0000000000
     17732       153  DOPC      C313          -32.9451350471       22.0734674205       -3.8188145862  MEMB      125             0.0000000000
     17733       153  DOPC      H13X          -32.3921374561       21.9862786362       -4.7784566568  MEMB      125             0.0000000000
     17734       153  DOPC      H13Y          -33.5904403691       22.9743865803       -3.8978510420  MEMB      125             0.0000000000
     17735       153  DOPC      C314          -31.9073130964       22.3233589636       -2.7163517810  MEMB      125             0.0000000000
     17736       153  DOPC      H14X          -31.4579297169       21.3106737078       -2.6336232474  MEMB      125             0.0000000000
     17737       153  DOPC      H14Y          -31.1909867651       23.1195997302       -3.0116450654  MEMB      125             0.0000000000
     17738       153  DOPC      C315          -32.6573449206       22.7607003053       -1.4410355016  MEMB      125             0.0000000000
     17739       153  DOPC      H15X          -33.3727109995       21.9643980706       -1.1435870329  MEMB      125             0.0000000000
     17740       153  DOPC      H15Y          -33.3393279975       23.5806662052       -1.7522840651  MEMB      125             0.0000000000
     17741       153  DOPC      C316          -31.6539621240       23.1901292155       -0.2921817727  MEMB      125             0.0000000000
     17742       153  DOPC      H16X          -30.8957402199       22.3954666384       -0.1250526221  MEMB      125             0.0000000000
     17743       153  DOPC      H16Y          -31.0877741582       24.0289612545       -0.7505633128  MEMB      125             0.0000000000
     17744       153  DOPC      C317          -32.2626937615       23.7222183075        1.0231214237  MEMB      125             0.0000000000
     17745       153  DOPC      H17X          -31.5334409002       24.2762687162        1.6520412310  MEMB      125             0.0000000000
     17746       153  DOPC      H17Y          -32.9948583856       24.5421719235        0.8620864839  MEMB      125             0.0000000000
     17747       153  DOPC      C318          -33.0744327446       22.6943062359        1.8077657350  MEMB      125             0.0000000000
     17748       153  DOPC      H18X          -32.3597210032       21.9735731759        2.2594867946  MEMB      125             0.0000000000
     17749       153  DOPC      H18Y          -33.6642828390       23.1692746406        2.6206627425  MEMB      125             0.0000000000
     17750       153  DOPC      H18Z          -33.7384731029       22.0476630114        1.1952097703  MEMB      125             0.0000000000
     17751       154  DOPC      N              22.2110589414       31.7579735139      -19.6613284169  MEMB      126             0.0000000000
     17752       154  DOPC      C12            21.4715908308       31.5526393031      -18.4019413781  MEMB      126             0.0000000000
     17753       154  DOPC      H12A           22.1674755395       31.1303061595      -17.6921673817  MEMB      126             0.0000000000
     17754       154  DOPC      H12B           20.6725699584       30.8769448766      -18.6691543598  MEMB      126             0.0000000000
     17755       154  DOPC      C13            22.9717709789       30.4635996982      -20.0637387345  MEMB      126             0.0000000000
     17756       154  DOPC      H13A           23.7134300318       30.6810278743      -20.8181039910  MEMB      126             0.0000000000
     17757       154  DOPC      H13B           23.3061276727       29.9802486237      -19.1576606218  MEMB      126             0.0000000000
     17758       154  DOPC      H13C           22.2817856174       29.6785657087      -20.3358447634  MEMB      126             0.0000000000
     17759       154  DOPC      C14            23.3568308475       32.7374507392      -19.5589842679  MEMB      126             0.0000000000
     17760       154  DOPC      H14A           23.7679736607       32.7274053159      -20.5576137506  MEMB      126             0.0000000000
     17761       154  DOPC      H14B           22.9872294240       33.7367924663      -19.3826011270  MEMB      126             0.0000000000
     17762       154  DOPC      H14C           24.0385232603       32.3773311216      -18.8026713942  MEMB      126             0.0000000000
     17763       154  DOPC      C15            21.2581517539       32.1821993914      -20.7175226036  MEMB      126             0.0000000000
     17764       154  DOPC      H15A           21.8109205405       32.1577620266      -21.6450188790  MEMB      126             0.0000000000
     17765       154  DOPC      H15B           20.8936038665       33.1941553753      -20.6203117229  MEMB      126             0.0000000000
     17766       154  DOPC      H15C           20.3705625897       31.5682045102      -20.7574702168  MEMB      126             0.0000000000
     17767       154  DOPC      C11            20.8803562022       32.7949363727      -17.7337494986  MEMB      126             0.0000000000
     17768       154  DOPC      H11A           20.3833360507       32.4349993995      -16.8076083751  MEMB      126             0.0000000000
     17769       154  DOPC      H11B           21.7553848892       33.3634524459      -17.3523897384  MEMB      126             0.0000000000
     17770       154  DOPC      P              20.3221603951       35.1275969414      -18.6246429500  MEMB      126             0.0000000000
     17771       154  DOPC      O13            19.0418122071       35.7398074762      -19.0878409729  MEMB      126             0.0000000000
     17772       154  DOPC      O14            21.5590685142       35.3183438132      -19.4264850107  MEMB      126             0.0000000000
     17773       154  DOPC      O12            20.0948923032       33.5960268309      -18.5567538187  MEMB      126             0.0000000000
     17774       154  DOPC      O11            20.5191923561       35.5781092048      -17.1670123070  MEMB      126             0.0000000000
     17775       154  DOPC      C1             19.4214086903       35.6265639678      -16.1955633466  MEMB      126             0.0000000000
     17776       154  DOPC      HA             18.8992981567       34.6499489753      -16.1064298358  MEMB      126             0.0000000000
     17777       154  DOPC      HB             18.6453796473       36.3493445551      -16.5267557142  MEMB      126             0.0000000000
     17778       154  DOPC      C2             20.0374339907       36.0434830192      -14.8424668101  MEMB      126             0.0000000000
     17779       154  DOPC      HS             20.7939083979       36.8387311280      -15.0146514633  MEMB      126             0.0000000000
     17780       154  DOPC      O21            20.7220033760       34.9413084051      -14.2747236498  MEMB      126             0.0000000000
     17781       154  DOPC      C21            21.9812724716       34.6803731702      -14.5343582646  MEMB      126             0.0000000000
     17782       154  DOPC      O22            22.7218562262       35.1198573176      -15.3382418514  MEMB      126             0.0000000000
     17783       154  DOPC      C22            22.4241680845       33.5345103864      -13.4572213898  MEMB      126             0.0000000000
     17784       154  DOPC      H2R            23.5305181121       33.4477788035      -13.5100246088  MEMB      126             0.0000000000
     17785       154  DOPC      H2S            22.2127485911       32.5485686984      -13.9236349141  MEMB      126             0.0000000000
     17786       154  DOPC      C3             18.9484282973       36.5304898218      -13.8929924812  MEMB      126             0.0000000000
     17787       154  DOPC      HX             18.1353809546       35.7733651095      -13.8868837750  MEMB      126             0.0000000000
     17788       154  DOPC      HY             18.5085438762       37.4681616981      -14.2949801562  MEMB      126             0.0000000000
     17789       154  DOPC      O31            19.4579001341       36.6926966180      -12.5148740733  MEMB      126             0.0000000000
     17790       154  DOPC      C31            19.3937551441       37.7973822922      -11.8936881350  MEMB      126             0.0000000000
     17791       154  DOPC      O32            18.7318852652       38.7340901794      -12.2180810797  MEMB      126             0.0000000000
     17792       154  DOPC      C32            20.2804953236       37.7513532126      -10.6719274192  MEMB      126             0.0000000000
     17793       154  DOPC      H2X            21.0359919650       36.9486595279      -10.8105948738  MEMB      126             0.0000000000
     17794       154  DOPC      H2Y            20.8539176436       38.7026407141      -10.6482705420  MEMB      126             0.0000000000
     17795       154  DOPC      C23            21.8218718385       33.7229237792      -12.0606195829  MEMB      126             0.0000000000
     17796       154  DOPC      H3R            20.7250356034       33.6820918923      -12.2326778575  MEMB      126             0.0000000000
     17797       154  DOPC      H3S            22.0341583617       34.7130943525      -11.6036540964  MEMB      126             0.0000000000
     17798       154  DOPC      C24            21.9805634522       32.5303791119      -11.0341405762  MEMB      126             0.0000000000
     17799       154  DOPC      H4R            23.0512483562       32.2605048906      -10.9111661260  MEMB      126             0.0000000000
     17800       154  DOPC      H4S            21.4569140593       31.6638888969      -11.4916417831  MEMB      126             0.0000000000
     17801       154  DOPC      C25            21.3038101047       32.6023492946       -9.6952675779  MEMB      126             0.0000000000
     17802       154  DOPC      H5R            21.2806276104       31.5955904433       -9.2259910000  MEMB      126             0.0000000000
     17803       154  DOPC      H5S            20.2291413832       32.8539034123       -9.8222657713  MEMB      126             0.0000000000
     17804       154  DOPC      C26            22.1166950512       33.4713578470       -8.7285112806  MEMB      126             0.0000000000
     17805       154  DOPC      H6R            22.3323530104       34.4490778244       -9.2100467101  MEMB      126             0.0000000000
     17806       154  DOPC      H6S            23.0818833627       32.9544623121       -8.5399599450  MEMB      126             0.0000000000
     17807       154  DOPC      C27            21.4769236724       33.3859075390       -7.3617911064  MEMB      126             0.0000000000
     17808       154  DOPC      H7R            21.4940026033       32.2949343766       -7.1524901726  MEMB      126             0.0000000000
     17809       154  DOPC      H7S            20.4459487989       33.7935789754       -7.4340111113  MEMB      126             0.0000000000
     17810       154  DOPC      C28            22.2857166495       34.1225166352       -6.2876919524  MEMB      126             0.0000000000
     17811       154  DOPC      H8R            23.3285818593       33.7397641933       -6.2717766877  MEMB      126             0.0000000000
     17812       154  DOPC      H8S            21.9211238778       33.8888516947       -5.2645631503  MEMB      126             0.0000000000
     17813       154  DOPC      C29            22.3163139399       35.5892734060       -6.3921925717  MEMB      126             0.0000000000
     17814       154  DOPC      H9R            23.2681416544       36.0246054511       -6.7305854146  MEMB      126             0.0000000000
     17815       154  DOPC      C210           21.4037469551       36.4037187755       -5.8645124222  MEMB      126             0.0000000000
     17816       154  DOPC      H10R           21.4995778632       37.4801633637       -6.0696545389  MEMB      126             0.0000000000
     17817       154  DOPC      C211           20.1524395184       35.9511883911       -5.0730568696  MEMB      126             0.0000000000
     17818       154  DOPC      H11R           19.7926329611       34.9257547543       -5.3040247242  MEMB      126             0.0000000000
     17819       154  DOPC      H11S           19.2620717238       36.5860047588       -5.2694606364  MEMB      126             0.0000000000
     17820       154  DOPC      C212           20.2717463775       36.1446130279       -3.5635266111  MEMB      126             0.0000000000
     17821       154  DOPC      H12R           19.2588879581       36.1485493272       -3.1069927757  MEMB      126             0.0000000000
     17822       154  DOPC      H12S           20.8570748946       37.0707869342       -3.3793694058  MEMB      126             0.0000000000
     17823       154  DOPC      C213           21.0518339422       35.0014030085       -2.8439564807  MEMB      126             0.0000000000
     17824       154  DOPC      H13R           22.1078401699       34.8977685476       -3.1732457919  MEMB      126             0.0000000000
     17825       154  DOPC      H13S           20.4966429030       34.0573700074       -3.0307326370  MEMB      126             0.0000000000
     17826       154  DOPC      C214           20.9800347517       35.3689513535       -1.3323716420  MEMB      126             0.0000000000
     17827       154  DOPC      H14R           20.9771320049       34.4222116228       -0.7509956013  MEMB      126             0.0000000000
     17828       154  DOPC      H14S           19.9611800284       35.6981860526       -1.0359586003  MEMB      126             0.0000000000
     17829       154  DOPC      C215           21.9465112070       36.4527322932       -0.8698308245  MEMB      126             0.0000000000
     17830       154  DOPC      H15R           22.2083509004       37.1299620663       -1.7107353309  MEMB      126             0.0000000000
     17831       154  DOPC      H15S           22.9437698237       36.0083089162       -0.6641982688  MEMB      126             0.0000000000
     17832       154  DOPC      C216           21.4659724924       37.3250293826        0.3528430627  MEMB      126             0.0000000000
     17833       154  DOPC      H16R           20.4802844542       37.8325316166        0.2808634507  MEMB      126             0.0000000000
     17834       154  DOPC      H16S           22.2868652490       38.0724376111        0.3099759557  MEMB      126             0.0000000000
     17835       154  DOPC      C217           21.3824202530       36.4893478683        1.7014920378  MEMB      126             0.0000000000
     17836       154  DOPC      H17R           22.1247537309       35.6654014639        1.6353498972  MEMB      126             0.0000000000
     17837       154  DOPC      H17S           20.4429763157       35.8975875598        1.7413116832  MEMB      126             0.0000000000
     17838       154  DOPC      C218           21.5916788664       37.3798921502        2.9662862003  MEMB      126             0.0000000000
     17839       154  DOPC      H18R           21.7328127824       36.6529766803        3.7945347126  MEMB      126             0.0000000000
     17840       154  DOPC      H18S           20.7429052799       38.0352203976        3.2568871540  MEMB      126             0.0000000000
     17841       154  DOPC      H18T           22.5504672514       37.9408081145        2.9458046881  MEMB      126             0.0000000000
     17842       154  DOPC      C33            19.4234788882       37.5528051986       -9.3930625890  MEMB      126             0.0000000000
     17843       154  DOPC      H3X            18.5768274000       38.2714606560       -9.3608624268  MEMB      126             0.0000000000
     17844       154  DOPC      H3Y            20.0633783124       37.6983606297       -8.4965898357  MEMB      126             0.0000000000
     17845       154  DOPC      C34            18.7680406877       36.1568040374       -9.3557580608  MEMB      126             0.0000000000
     17846       154  DOPC      H4X            19.4945654605       35.3949655086       -9.0006742118  MEMB      126             0.0000000000
     17847       154  DOPC      H4Y            18.3527416373       35.8771074015      -10.3475335499  MEMB      126             0.0000000000
     17848       154  DOPC      C35            17.5885091113       36.1269745132       -8.2776012371  MEMB      126             0.0000000000
     17849       154  DOPC      H5X            16.9014325573       36.9291915644       -8.6221226214  MEMB      126             0.0000000000
     17850       154  DOPC      H5Y            18.0346309866       36.3542660890       -7.2858180292  MEMB      126             0.0000000000
     17851       154  DOPC      C36            16.9326873465       34.7117938736       -8.3441352443  MEMB      126             0.0000000000
     17852       154  DOPC      H6X            16.7629644693       34.4453192708       -9.4092675028  MEMB      126             0.0000000000
     17853       154  DOPC      H6Y            17.6177429343       33.9210618648       -7.9702864987  MEMB      126             0.0000000000
     17854       154  DOPC      C37            15.5845434396       34.5975775872       -7.5445289014  MEMB      126             0.0000000000
     17855       154  DOPC      H7X            14.9556413563       35.4223382048       -7.9427415477  MEMB      126             0.0000000000
     17856       154  DOPC      H7Y            15.0584679122       33.6302671106       -7.6924338827  MEMB      126             0.0000000000
     17857       154  DOPC      C38            15.8838350390       34.8328847980       -6.0535790630  MEMB      126             0.0000000000
     17858       154  DOPC      H8X            15.8280531436       35.9389868655       -5.9655589352  MEMB      126             0.0000000000
     17859       154  DOPC      H8Y            16.8148523946       34.3670469413       -5.6656058476  MEMB      126             0.0000000000
     17860       154  DOPC      C39            14.7891812257       34.5194157266       -4.9761747049  MEMB      126             0.0000000000
     17861       154  DOPC      H9X            13.9632540812       35.2458513655       -4.9645310421  MEMB      126             0.0000000000
     17862       154  DOPC      C310           14.9219470580       33.5496753990       -4.0639972353  MEMB      126             0.0000000000
     17863       154  DOPC      H10X           14.1554242682       33.5464365477       -3.2750535411  MEMB      126             0.0000000000
     17864       154  DOPC      C311           16.0660104681       32.5523277874       -3.8796016296  MEMB      126             0.0000000000
     17865       154  DOPC      H11X           16.7116176014       32.5017513189       -4.7823502861  MEMB      126             0.0000000000
     17866       154  DOPC      H11Y           15.5823093481       31.5757640106       -3.6635517651  MEMB      126             0.0000000000
     17867       154  DOPC      C312           17.0736095474       32.9478241495       -2.7844720798  MEMB      126             0.0000000000
     17868       154  DOPC      H12X           17.2924549599       34.0354050840       -2.8444332480  MEMB      126             0.0000000000
     17869       154  DOPC      H12Y           18.0027031274       32.4357161071       -3.1143972434  MEMB      126             0.0000000000
     17870       154  DOPC      C313           16.8470575277       32.5233784619       -1.3185462085  MEMB      126             0.0000000000
     17871       154  DOPC      H13X           15.9495415419       33.1139460162       -1.0356762634  MEMB      126             0.0000000000
     17872       154  DOPC      H13Y           16.5062883256       31.4679878519       -1.2526049419  MEMB      126             0.0000000000
     17873       154  DOPC      C314           17.9633933371       32.7516081238       -0.2811734523  MEMB      126             0.0000000000
     17874       154  DOPC      H14X           18.2181693886       31.8715105250        0.3471883952  MEMB      126             0.0000000000
     17875       154  DOPC      H14Y           18.8546328192       33.0246203753       -0.8857222055  MEMB      126             0.0000000000
     17876       154  DOPC      C315           17.6814697539       33.8258194517        0.7037587170  MEMB      126             0.0000000000
     17877       154  DOPC      H15X           18.6357415899       34.0410621414        1.2304048671  MEMB      126             0.0000000000
     17878       154  DOPC      H15Y           16.9876657269       33.3806103325        1.4485703828  MEMB      126             0.0000000000
     17879       154  DOPC      C316           17.1356287003       35.1460058411        0.1430099351  MEMB      126             0.0000000000
     17880       154  DOPC      H16X           17.6082653131       35.4502316258       -0.8153118302  MEMB      126             0.0000000000
     17881       154  DOPC      H16Y           16.0451631708       34.9448161054        0.0742439705  MEMB      126             0.0000000000
     17882       154  DOPC      C317           17.3444513668       36.3964506307        1.0675589508  MEMB      126             0.0000000000
     17883       154  DOPC      H17X           16.8632280662       36.1509035156        2.0383589532  MEMB      126             0.0000000000
     17884       154  DOPC      H17Y           18.4426644758       36.5134951548        1.1881805622  MEMB      126             0.0000000000
     17885       154  DOPC      C318           16.7219867927       37.7306166957        0.5147672093  MEMB      126             0.0000000000
     17886       154  DOPC      H18X           16.6755672335       38.4629288764        1.3489634926  MEMB      126             0.0000000000
     17887       154  DOPC      H18Y           17.3081110346       38.1339025635       -0.3385455835  MEMB      126             0.0000000000
     17888       154  DOPC      H18Z           15.6895734727       37.5297457652        0.1568636782  MEMB      126             0.0000000000
     17889       155  DOPC      N              27.3548261276      -28.8415643533      -19.3810979443  MEMB      127             0.0000000000
     17890       155  DOPC      C12            27.4248859185      -29.5238066367      -18.0456125491  MEMB      127             0.0000000000
     17891       155  DOPC      H12A           26.5389426392      -29.2896591151      -17.4740537518  MEMB      127             0.0000000000
     17892       155  DOPC      H12B           28.3337093288      -29.2385796483      -17.5366080924  MEMB      127             0.0000000000
     17893       155  DOPC      C13            28.7150822479      -28.9363501758      -20.1266371111  MEMB      127             0.0000000000
     17894       155  DOPC      H13A           29.5366241256      -28.6700669184      -19.4781293888  MEMB      127             0.0000000000
     17895       155  DOPC      H13B           28.7860528745      -29.9884260059      -20.3600886480  MEMB      127             0.0000000000
     17896       155  DOPC      H13C           28.7063449072      -28.4014209911      -21.0648131386  MEMB      127             0.0000000000
     17897       155  DOPC      C14            26.9726543617      -27.4289852588      -19.0383707535  MEMB      127             0.0000000000
     17898       155  DOPC      H14A           27.3541207988      -27.1233130358      -18.0753298175  MEMB      127             0.0000000000
     17899       155  DOPC      H14B           27.2583799276      -26.7905274674      -19.8612513707  MEMB      127             0.0000000000
     17900       155  DOPC      H14C           25.9124986147      -27.3178836817      -18.8648021662  MEMB      127             0.0000000000
     17901       155  DOPC      C15            26.2492568976      -29.4571660513      -20.2063475226  MEMB      127             0.0000000000
     17902       155  DOPC      H15A           26.5368922077      -30.4657828579      -20.4639482153  MEMB      127             0.0000000000
     17903       155  DOPC      H15B           26.2461728307      -28.9068708856      -21.1356297860  MEMB      127             0.0000000000
     17904       155  DOPC      H15C           25.2666617802      -29.4484967766      -19.7582047021  MEMB      127             0.0000000000
     17905       155  DOPC      C11            27.4338714098      -31.0402120587      -18.0480357652  MEMB      127             0.0000000000
     17906       155  DOPC      H11A           27.5301785930      -31.4878803648      -17.0357912858  MEMB      127             0.0000000000
     17907       155  DOPC      H11B           26.3593922766      -31.2631406471      -18.2215826222  MEMB      127             0.0000000000
     17908       155  DOPC      P              29.6007051607      -32.2382507935      -18.8583663736  MEMB      127             0.0000000000
     17909       155  DOPC      O13            30.6509095144      -31.3011773510      -18.3902963984  MEMB      127             0.0000000000
     17910       155  DOPC      O14            29.8636742605      -33.1182841167      -20.0476834828  MEMB      127             0.0000000000
     17911       155  DOPC      O12            28.2634859591      -31.4975092450      -19.1175981856  MEMB      127             0.0000000000
     17912       155  DOPC      O11            29.1634064756      -33.2510711925      -17.7399539177  MEMB      127             0.0000000000
     17913       155  DOPC      C1             30.1177346693      -33.9683259492      -17.0339096587  MEMB      127             0.0000000000
     17914       155  DOPC      HA             31.0978669395      -33.4550600581      -16.9328176961  MEMB      127             0.0000000000
     17915       155  DOPC      HB             30.3484389772      -34.8744565695      -17.6339297436  MEMB      127             0.0000000000
     17916       155  DOPC      C2             29.6625857136      -34.6344769199      -15.6746778363  MEMB      127             0.0000000000
     17917       155  DOPC      HS             28.6904989388      -35.1173873817      -15.9116708693  MEMB      127             0.0000000000
     17918       155  DOPC      O21            29.6123286539      -33.6549261067      -14.6775745845  MEMB      127             0.0000000000
     17919       155  DOPC      C21            28.7663857039      -33.9373703526      -13.6757131971  MEMB      127             0.0000000000
     17920       155  DOPC      O22            28.1554196922      -34.9691052265      -13.5722990259  MEMB      127             0.0000000000
     17921       155  DOPC      C22            28.7620721130      -32.6897812285      -12.7608014173  MEMB      127             0.0000000000
     17922       155  DOPC      H2R            28.1512268174      -31.8757830168      -13.2064424042  MEMB      127             0.0000000000
     17923       155  DOPC      H2S            29.7963068158      -32.2842037408      -12.7744564612  MEMB      127             0.0000000000
     17924       155  DOPC      C3             30.5872271103      -35.8153913167      -15.2172914652  MEMB      127             0.0000000000
     17925       155  DOPC      HX             30.7568089826      -36.4883061725      -16.0849027141  MEMB      127             0.0000000000
     17926       155  DOPC      HY             30.0124888592      -36.2562983223      -14.3749155522  MEMB      127             0.0000000000
     17927       155  DOPC      O31            31.8150997206      -35.2022387883      -14.8556606690  MEMB      127             0.0000000000
     17928       155  DOPC      C31            32.2153724328      -35.1579629246      -13.5422366952  MEMB      127             0.0000000000
     17929       155  DOPC      O32            31.6017716012      -35.5489508715      -12.5981210493  MEMB      127             0.0000000000
     17930       155  DOPC      C32            33.5410110048      -34.3699102528      -13.5435088392  MEMB      127             0.0000000000
     17931       155  DOPC      H2X            34.0236871289      -34.5422834591      -12.5577948781  MEMB      127             0.0000000000
     17932       155  DOPC      H2Y            34.1944941799      -34.7860606082      -14.3398124612  MEMB      127             0.0000000000
     17933       155  DOPC      C23            28.3164387260      -32.9178670696      -11.3127428404  MEMB      127             0.0000000000
     17934       155  DOPC      H3R            27.2928733465      -33.3485862128      -11.2793373923  MEMB      127             0.0000000000
     17935       155  DOPC      H3S            28.3973469210      -31.9164928665      -10.8383754687  MEMB      127             0.0000000000
     17936       155  DOPC      C24            29.3353154689      -33.7020755345      -10.5273590211  MEMB      127             0.0000000000
     17937       155  DOPC      H4R            30.2328675430      -33.0474512367      -10.5136327016  MEMB      127             0.0000000000
     17938       155  DOPC      H4S            29.6320784093      -34.6388240755      -11.0457751659  MEMB      127             0.0000000000
     17939       155  DOPC      C25            28.8745030269      -34.2100535529       -9.0805953790  MEMB      127             0.0000000000
     17940       155  DOPC      H5R            27.9712890145      -34.7947050320       -9.3575583213  MEMB      127             0.0000000000
     17941       155  DOPC      H5S            28.5985588640      -33.3497334818       -8.4340471366  MEMB      127             0.0000000000
     17942       155  DOPC      C26            29.9570020878      -34.9565925998       -8.2956417835  MEMB      127             0.0000000000
     17943       155  DOPC      H6R            30.3624645089      -35.7350580148       -8.9767530067  MEMB      127             0.0000000000
     17944       155  DOPC      H6S            29.4807796683      -35.5018652497       -7.4529018808  MEMB      127             0.0000000000
     17945       155  DOPC      C27            31.2206398757      -34.1430149545       -7.8300552814  MEMB      127             0.0000000000
     17946       155  DOPC      H7R            31.8028775373      -33.8579883900       -8.7323193436  MEMB      127             0.0000000000
     17947       155  DOPC      H7S            31.9397103070      -34.7261871370       -7.2159146517  MEMB      127             0.0000000000
     17948       155  DOPC      C28            30.9839814801      -32.7712921674       -7.1624044081  MEMB      127             0.0000000000
     17949       155  DOPC      H8R            30.4625844409      -32.1446528417       -7.9172489808  MEMB      127             0.0000000000
     17950       155  DOPC      H8S            31.9732350592      -32.4414187079       -6.7791531028  MEMB      127             0.0000000000
     17951       155  DOPC      C29            30.1434548660      -33.0003484846       -5.8965821425  MEMB      127             0.0000000000
     17952       155  DOPC      H9R            29.1021935771      -33.2950281428       -6.0939112039  MEMB      127             0.0000000000
     17953       155  DOPC      C210           30.7038970522      -33.1283883939       -4.6810343408  MEMB      127             0.0000000000
     17954       155  DOPC      H10R           30.0317032213      -33.3035717920       -3.8281176906  MEMB      127             0.0000000000
     17955       155  DOPC      C211           32.1803708050      -33.0532511113       -4.2795263659  MEMB      127             0.0000000000
     17956       155  DOPC      H11R           32.3836471251      -32.0490886303       -3.8498085401  MEMB      127             0.0000000000
     17957       155  DOPC      H11S           32.8371497681      -33.1352247159       -5.1718513715  MEMB      127             0.0000000000
     17958       155  DOPC      C212           32.6741445131      -34.1142629553       -3.3196923845  MEMB      127             0.0000000000
     17959       155  DOPC      H12R           33.7847505096      -34.0994592762       -3.3453011237  MEMB      127             0.0000000000
     17960       155  DOPC      H12S           32.3232285944      -35.0978000965       -3.6989466446  MEMB      127             0.0000000000
     17961       155  DOPC      C213           32.2433587501      -33.9155829004       -1.8446563034  MEMB      127             0.0000000000
     17962       155  DOPC      H13R           31.1355095379      -33.8479742135       -1.7954604642  MEMB      127             0.0000000000
     17963       155  DOPC      H13S           32.6319803460      -32.9319206674       -1.5045047770  MEMB      127             0.0000000000
     17964       155  DOPC      C214           32.7291023853      -35.0281040040       -0.8309281744  MEMB      127             0.0000000000
     17965       155  DOPC      H14R           32.4034746709      -34.5558362305        0.1205171927  MEMB      127             0.0000000000
     17966       155  DOPC      H14S           33.8165092545      -35.2027604926       -0.6847722389  MEMB      127             0.0000000000
     17967       155  DOPC      C215           32.0054894603      -36.3747038995       -0.9947223176  MEMB      127             0.0000000000
     17968       155  DOPC      H15R           32.4452661683      -37.2109824514       -0.4102936592  MEMB      127             0.0000000000
     17969       155  DOPC      H15S           32.4367237649      -36.7703348752       -1.9390910856  MEMB      127             0.0000000000
     17970       155  DOPC      C216           30.4851884615      -36.3418497546       -0.9854089306  MEMB      127             0.0000000000
     17971       155  DOPC      H16R           30.1464297906      -36.0388178052       -1.9991817470  MEMB      127             0.0000000000
     17972       155  DOPC      H16S           30.1157013767      -35.5911633434       -0.2544703999  MEMB      127             0.0000000000
     17973       155  DOPC      C217           29.8380977750      -37.7131050185       -0.7848035235  MEMB      127             0.0000000000
     17974       155  DOPC      H17R           30.2845465947      -38.4550995653       -1.4808272394  MEMB      127             0.0000000000
     17975       155  DOPC      H17S           28.7651374683      -37.6958355085       -1.0725177371  MEMB      127             0.0000000000
     17976       155  DOPC      C218           29.8285259185      -38.3635152751        0.5803994257  MEMB      127             0.0000000000
     17977       155  DOPC      H18R           29.4300684560      -39.3958788156        0.4815169068  MEMB      127             0.0000000000
     17978       155  DOPC      H18S           29.1766641517      -37.8312569209        1.3057268889  MEMB      127             0.0000000000
     17979       155  DOPC      H18T           30.8070529054      -38.4580420595        1.0979630145  MEMB      127             0.0000000000
     17980       155  DOPC      C33            33.3929728195      -32.8794205329      -13.7503141551  MEMB      127             0.0000000000
     17981       155  DOPC      H3X            32.6884862202      -32.7668532599      -14.6019878598  MEMB      127             0.0000000000
     17982       155  DOPC      H3Y            34.3570256791      -32.4140087992      -14.0474914452  MEMB      127             0.0000000000
     17983       155  DOPC      C34            32.8050924376      -32.0545940191      -12.5750518538  MEMB      127             0.0000000000
     17984       155  DOPC      H4X            33.6647944058      -31.8375595116      -11.9056270816  MEMB      127             0.0000000000
     17985       155  DOPC      H4Y            32.1124362082      -32.6533699279      -11.9457538673  MEMB      127             0.0000000000
     17986       155  DOPC      C35            32.1685152126      -30.7330911571      -13.0817370603  MEMB      127             0.0000000000
     17987       155  DOPC      H5X            31.3954814258      -31.0221719151      -13.8254926823  MEMB      127             0.0000000000
     17988       155  DOPC      H5Y            32.8181429613      -30.0236358513      -13.6375953249  MEMB      127             0.0000000000
     17989       155  DOPC      C36            31.4386240770      -29.9571218295      -11.9548679238  MEMB      127             0.0000000000
     17990       155  DOPC      H6X            30.9756413368      -30.6696717998      -11.2391580231  MEMB      127             0.0000000000
     17991       155  DOPC      H6Y            32.2445569522      -29.3862248731      -11.4460755025  MEMB      127             0.0000000000
     17992       155  DOPC      C37            30.3640782471      -28.9844577279      -12.4429704745  MEMB      127             0.0000000000
     17993       155  DOPC      H7X            30.7841674731      -28.2597413053      -13.1727869845  MEMB      127             0.0000000000
     17994       155  DOPC      H7Y            29.6063983662      -29.6394663624      -12.9238088931  MEMB      127             0.0000000000
     17995       155  DOPC      C38            29.6958044064      -28.1311911699      -11.2893950109  MEMB      127             0.0000000000
     17996       155  DOPC      H8X            28.9593923334      -28.8125196489      -10.8121005233  MEMB      127             0.0000000000
     17997       155  DOPC      H8Y            29.1065633922      -27.3219706874      -11.7713475087  MEMB      127             0.0000000000
     17998       155  DOPC      C39            30.7200671191      -27.5706429667      -10.2497626311  MEMB      127             0.0000000000
     17999       155  DOPC      H9X            31.1827034850      -26.6228882059      -10.5623781876  MEMB      127             0.0000000000
     18000       155  DOPC      C310           31.1169360295      -28.0679392869       -9.0839228279  MEMB      127             0.0000000000
     18001       155  DOPC      H10X           31.7666654594      -27.5147361097       -8.3897920841  MEMB      127             0.0000000000
     18002       155  DOPC      C311           30.6832225253      -29.3167906332       -8.4354889375  MEMB      127             0.0000000000
     18003       155  DOPC      H11X           31.6097460646      -29.8243062448       -8.0915369011  MEMB      127             0.0000000000
     18004       155  DOPC      H11Y           30.1910289748      -29.9206705000       -9.2275721304  MEMB      127             0.0000000000
     18005       155  DOPC      C312           29.7066161746      -29.1138464584       -7.3373908216  MEMB      127             0.0000000000
     18006       155  DOPC      H12X           28.9794744596      -29.9512204103       -7.2711276889  MEMB      127             0.0000000000
     18007       155  DOPC      H12Y           29.1211996996      -28.1791433399       -7.4713256365  MEMB      127             0.0000000000
     18008       155  DOPC      C313           30.4203582733      -29.0736921232       -5.9170612895  MEMB      127             0.0000000000
     18009       155  DOPC      H13X           31.0286543890      -29.9769262336       -5.6969142688  MEMB      127             0.0000000000
     18010       155  DOPC      H13Y           31.0589734148      -28.1978110001       -6.1606258637  MEMB      127             0.0000000000
     18011       155  DOPC      C314           29.5459440165      -28.6829663072       -4.7687028530  MEMB      127             0.0000000000
     18012       155  DOPC      H14X           28.9136083319      -27.8125002763       -5.0457616036  MEMB      127             0.0000000000
     18013       155  DOPC      H14Y           28.8744353860      -29.5619276238       -4.6646633135  MEMB      127             0.0000000000
     18014       155  DOPC      C315           30.3209689210      -28.2673974570       -3.4904668272  MEMB      127             0.0000000000
     18015       155  DOPC      H15X           30.8954993447      -27.3483370830       -3.7345234387  MEMB      127             0.0000000000
     18016       155  DOPC      H15Y           31.0238830562      -29.0937569113       -3.2509622565  MEMB      127             0.0000000000
     18017       155  DOPC      C316           29.4384983985      -28.0349380477       -2.1456713839  MEMB      127             0.0000000000
     18018       155  DOPC      H16X           30.1212980463      -27.4912992997       -1.4582382668  MEMB      127             0.0000000000
     18019       155  DOPC      H16Y           28.6158467673      -27.3664310137       -2.4783314269  MEMB      127             0.0000000000
     18020       155  DOPC      C317           28.8244685231      -29.2923845838       -1.4805919836  MEMB      127             0.0000000000
     18021       155  DOPC      H17X           28.2777593985      -28.9340614779       -0.5822397969  MEMB      127             0.0000000000
     18022       155  DOPC      H17Y           28.0779675846      -29.7173199893       -2.1852104229  MEMB      127             0.0000000000
     18023       155  DOPC      C318           29.8108504233      -30.3235887637       -0.9836039603  MEMB      127             0.0000000000
     18024       155  DOPC      H18X           30.5646561113      -30.6702451476       -1.7224724217  MEMB      127             0.0000000000
     18025       155  DOPC      H18Y           30.4229010198      -29.8183463413       -0.2061431934  MEMB      127             0.0000000000
     18026       155  DOPC      H18Z           29.2840082608      -31.1977478222       -0.5447382941  MEMB      127             0.0000000000
     18027       156  DOPC      N             -35.2799159860      -23.3803530914      -17.7109755281  MEMB      128             0.0000000000
     18028       156  DOPC      C12           -35.7101398457      -24.5328296324      -18.5544742618  MEMB      128             0.0000000000
     18029       156  DOPC      H12A          -36.7778284198      -24.5150126072      -18.3928464685  MEMB      128             0.0000000000
     18030       156  DOPC      H12B          -35.3475195981      -25.3936104378      -18.0122906975  MEMB      128             0.0000000000
     18031       156  DOPC      C13           -35.9762700847      -22.1087963608      -18.2309382196  MEMB      128             0.0000000000
     18032       156  DOPC      H13A          -35.5536006222      -21.2194591800      -17.7872832200  MEMB      128             0.0000000000
     18033       156  DOPC      H13B          -35.6825972914      -22.1564864282      -19.2691491763  MEMB      128             0.0000000000
     18034       156  DOPC      H13C          -37.0377828499      -22.2953756866      -18.3000669919  MEMB      128             0.0000000000
     18035       156  DOPC      C14           -33.7514413860      -23.1989901226      -17.7477696147  MEMB      128             0.0000000000
     18036       156  DOPC      H14A          -33.3137564092      -24.1862517729      -17.7356721835  MEMB      128             0.0000000000
     18037       156  DOPC      H14B          -33.5151875909      -22.7744804935      -18.7123294459  MEMB      128             0.0000000000
     18038       156  DOPC      H14C          -33.4899506139      -22.6867287826      -16.8336520996  MEMB      128             0.0000000000
     18039       156  DOPC      C15           -35.6268986286      -23.6598389090      -16.2471568655  MEMB      128             0.0000000000
     18040       156  DOPC      H15A          -36.6968944928      -23.6956100605      -16.1049274761  MEMB      128             0.0000000000
     18041       156  DOPC      H15B          -35.1064723232      -23.0065651520      -15.5624746960  MEMB      128             0.0000000000
     18042       156  DOPC      H15C          -35.1433323084      -24.6211986329      -16.1557732414  MEMB      128             0.0000000000
     18043       156  DOPC      C11           -35.2457770715      -24.4976158927      -20.0698317472  MEMB      128             0.0000000000
     18044       156  DOPC      H11A          -35.9022731960      -25.0118837338      -20.8039041500  MEMB      128             0.0000000000
     18045       156  DOPC      H11B          -35.3337111977      -23.4986538112      -20.5480194039  MEMB      128             0.0000000000
     18046       156  DOPC      P             -33.7423999363      -26.6097609761      -20.1321958282  MEMB      128             0.0000000000
     18047       156  DOPC      O13           -32.4927970918      -26.8455201762      -19.4160227757  MEMB      128             0.0000000000
     18048       156  DOPC      O14           -33.8117257725      -27.1702937667      -21.5049210702  MEMB      128             0.0000000000
     18049       156  DOPC      O12           -33.9207641047      -25.0564055007      -20.1033111443  MEMB      128             0.0000000000
     18050       156  DOPC      O11           -34.9045746947      -27.2393641679      -19.2824029171  MEMB      128             0.0000000000
     18051       156  DOPC      C1            -36.0328562968      -27.9932133182      -19.9595406769  MEMB      128             0.0000000000
     18052       156  DOPC      HA            -35.5609456950      -28.8583473145      -20.4725359565  MEMB      128             0.0000000000
     18053       156  DOPC      HB            -36.4456265937      -27.3029628873      -20.7260237326  MEMB      128             0.0000000000
     18054       156  DOPC      C2            -37.0521420481      -28.4357257097      -18.9162248741  MEMB      128             0.0000000000
     18055       156  DOPC      HS            -37.9646059052      -28.7305108105      -19.4773238887  MEMB      128             0.0000000000
     18056       156  DOPC      O21           -37.2968372893      -27.1976861009      -18.1557273797  MEMB      128             0.0000000000
     18057       156  DOPC      C21           -38.3541970740      -27.2892718400      -17.2638409169  MEMB      128             0.0000000000
     18058       156  DOPC      O22           -39.1651064960      -28.2100854830      -17.2577846013  MEMB      128             0.0000000000
     18059       156  DOPC      C22           -38.3879714820      -26.0620023609      -16.2756387029  MEMB      128             0.0000000000
     18060       156  DOPC      H2R           -38.9122214879      -25.2005084771      -16.7418050962  MEMB      128             0.0000000000
     18061       156  DOPC      H2S           -37.3247685868      -25.8200864097      -16.0625716311  MEMB      128             0.0000000000
     18062       156  DOPC      C3            -36.4788375116      -29.5845141809      -18.0986516074  MEMB      128             0.0000000000
     18063       156  DOPC      HX            -36.3157040821      -30.3877951774      -18.8486168651  MEMB      128             0.0000000000
     18064       156  DOPC      HY            -37.1986548343      -30.0596385668      -17.3983368421  MEMB      128             0.0000000000
     18065       156  DOPC      O31           -35.2339972087      -29.1905412477      -17.4863474506  MEMB      128             0.0000000000
     18066       156  DOPC      C31           -35.2703160695      -28.9922979417      -16.1805234064  MEMB      128             0.0000000000
     18067       156  DOPC      O32           -36.2021063889      -29.0475802326      -15.4371428978  MEMB      128             0.0000000000
     18068       156  DOPC      C32           -33.8943378668      -28.4932456559      -15.6498621496  MEMB      128             0.0000000000
     18069       156  DOPC      H2X           -33.3508188415      -29.2484387994      -15.0427451113  MEMB      128             0.0000000000
     18070       156  DOPC      H2Y           -33.1615546701      -28.1997479998      -16.4316608430  MEMB      128             0.0000000000
     18071       156  DOPC      C23           -39.2447532504      -26.4757961587      -15.0717513981  MEMB      128             0.0000000000
     18072       156  DOPC      H3R           -39.3384191036      -27.5743602045      -14.9349864365  MEMB      128             0.0000000000
     18073       156  DOPC      H3S           -40.3053054775      -26.1961474941      -15.2488013808  MEMB      128             0.0000000000
     18074       156  DOPC      C24           -38.8695024415      -25.9878466099      -13.6151450867  MEMB      128             0.0000000000
     18075       156  DOPC      H4R           -39.5786824860      -26.3850912370      -12.8577934493  MEMB      128             0.0000000000
     18076       156  DOPC      H4S           -38.8194993232      -24.8879830798      -13.4664147860  MEMB      128             0.0000000000
     18077       156  DOPC      C25           -37.4767721915      -26.4296689939      -13.1166335034  MEMB      128             0.0000000000
     18078       156  DOPC      H5R           -36.6444271509      -25.9276549774      -13.6546900004  MEMB      128             0.0000000000
     18079       156  DOPC      H5S           -37.3989557693      -27.5224339733      -13.3013777098  MEMB      128             0.0000000000
     18080       156  DOPC      C26           -37.3933110812      -26.5328350170      -11.5624537298  MEMB      128             0.0000000000
     18081       156  DOPC      H6R           -38.1875722438      -27.1971423432      -11.1597554350  MEMB      128             0.0000000000
     18082       156  DOPC      H6S           -37.6796564892      -25.5116628304      -11.2314929176  MEMB      128             0.0000000000
     18083       156  DOPC      C27           -36.0576167859      -27.1844268754      -11.1180012022  MEMB      128             0.0000000000
     18084       156  DOPC      H7R           -35.1914395220      -26.5812171824      -11.4646941182  MEMB      128             0.0000000000
     18085       156  DOPC      H7S           -35.9060035094      -28.2384023591      -11.4349707743  MEMB      128             0.0000000000
     18086       156  DOPC      C28           -36.0483441085      -27.3542277744       -9.5524282781  MEMB      128             0.0000000000
     18087       156  DOPC      H8R           -36.9901535999      -27.8334489415       -9.2094078323  MEMB      128             0.0000000000
     18088       156  DOPC      H8S           -36.0535400721      -26.3254740216       -9.1329532483  MEMB      128             0.0000000000
     18089       156  DOPC      C29           -34.7602175975      -28.1054498554       -9.0525912364  MEMB      128             0.0000000000
     18090       156  DOPC      H9R           -33.8535905055      -27.8328671943       -9.6127035139  MEMB      128             0.0000000000
     18091       156  DOPC      C210          -34.5265601373      -28.9739657932       -8.0284662853  MEMB      128             0.0000000000
     18092       156  DOPC      H10R          -33.5260393517      -29.3702250294       -7.8005706569  MEMB      128             0.0000000000
     18093       156  DOPC      C211          -35.6313628163      -29.4275190422       -7.0857810797  MEMB      128             0.0000000000
     18094       156  DOPC      H11R          -35.4265689714      -30.3486321927       -6.4993245643  MEMB      128             0.0000000000
     18095       156  DOPC      H11S          -36.5337690284      -29.5930910012       -7.7123344189  MEMB      128             0.0000000000
     18096       156  DOPC      C212          -36.0336712337      -28.3768815686       -6.0546273099  MEMB      128             0.0000000000
     18097       156  DOPC      H12R          -36.5182940287      -27.5216024035       -6.5722752490  MEMB      128             0.0000000000
     18098       156  DOPC      H12S          -35.0830175408      -27.9927216593       -5.6268427272  MEMB      128             0.0000000000
     18099       156  DOPC      C213          -36.8797694200      -28.9126138854       -4.8518264779  MEMB      128             0.0000000000
     18100       156  DOPC      H13R          -36.3160207525      -29.6311491777       -4.2192006349  MEMB      128             0.0000000000
     18101       156  DOPC      H13S          -37.7585479922      -29.4769975619       -5.2306934659  MEMB      128             0.0000000000
     18102       156  DOPC      C214          -37.2274528220      -27.7671244222       -3.8612941738  MEMB      128             0.0000000000
     18103       156  DOPC      H14R          -37.9531022957      -28.1468207674       -3.1105701622  MEMB      128             0.0000000000
     18104       156  DOPC      H14S          -37.7673562845      -27.0696352015       -4.5368193431  MEMB      128             0.0000000000
     18105       156  DOPC      C215          -35.9834070910      -27.0010901631       -3.3748254683  MEMB      128             0.0000000000
     18106       156  DOPC      H15R          -35.6719168698      -26.2098196964       -4.0897982359  MEMB      128             0.0000000000
     18107       156  DOPC      H15S          -35.1281211340      -27.6944786389       -3.2264360765  MEMB      128             0.0000000000
     18108       156  DOPC      C216          -36.1515162976      -26.3256375710       -1.9894248158  MEMB      128             0.0000000000
     18109       156  DOPC      H16R          -36.4778521547      -27.2019811616       -1.3895506806  MEMB      128             0.0000000000
     18110       156  DOPC      H16S          -37.0607146339      -25.6885956194       -1.9463319148  MEMB      128             0.0000000000
     18111       156  DOPC      C217          -34.9886449466      -25.5366897210       -1.3086003560  MEMB      128             0.0000000000
     18112       156  DOPC      H17R          -34.0811753181      -26.1771393730       -1.2832228423  MEMB      128             0.0000000000
     18113       156  DOPC      H17S          -35.2593807528      -25.3669428818       -0.2445476545  MEMB      128             0.0000000000
     18114       156  DOPC      C218          -34.5221017898      -24.2293845138       -1.9190853226  MEMB      128             0.0000000000
     18115       156  DOPC      H18R          -35.4542740011      -23.6291298962       -1.9902920962  MEMB      128             0.0000000000
     18116       156  DOPC      H18S          -33.9774715485      -24.3425709207       -2.8807958634  MEMB      128             0.0000000000
     18117       156  DOPC      H18T          -33.8410835977      -23.7226619620       -1.2023098453  MEMB      128             0.0000000000
     18118       156  DOPC      C33           -34.0742865652      -27.2078558336      -14.8965775229  MEMB      128             0.0000000000
     18119       156  DOPC      H3X           -34.4925534105      -27.4072710901      -13.8868213172  MEMB      128             0.0000000000
     18120       156  DOPC      H3Y           -34.7574732699      -26.5282455607      -15.4494849589  MEMB      128             0.0000000000
     18121       156  DOPC      C34           -32.6934487185      -26.5408948405      -14.7884538297  MEMB      128             0.0000000000
     18122       156  DOPC      H4X           -32.5204403112      -26.1820018365      -15.8255578106  MEMB      128             0.0000000000
     18123       156  DOPC      H4Y           -31.8952897149      -27.2134729137      -14.4077939997  MEMB      128             0.0000000000
     18124       156  DOPC      C35           -32.9509343866      -25.2904418095      -13.9276825429  MEMB      128             0.0000000000
     18125       156  DOPC      H5X           -33.9731530862      -24.8560935835      -13.9006349589  MEMB      128             0.0000000000
     18126       156  DOPC      H5Y           -32.1709764250      -24.5488403295      -14.2033884153  MEMB      128             0.0000000000
     18127       156  DOPC      C36           -32.6559321113      -25.5153435804      -12.4500342156  MEMB      128             0.0000000000
     18128       156  DOPC      H6X           -33.3406789940      -26.2992889949      -12.0616115787  MEMB      128             0.0000000000
     18129       156  DOPC      H6Y           -31.6336486161      -25.9293791811      -12.3164985958  MEMB      128             0.0000000000
     18130       156  DOPC      C37           -32.7352293611      -24.2090476858      -11.6256171259  MEMB      128             0.0000000000
     18131       156  DOPC      H7X           -31.8435071667      -23.5499245106      -11.6942422877  MEMB      128             0.0000000000
     18132       156  DOPC      H7Y           -33.6617191245      -23.6878458981      -11.9485511131  MEMB      128             0.0000000000
     18133       156  DOPC      C38           -33.0578149404      -24.6010588741      -10.1738172864  MEMB      128             0.0000000000
     18134       156  DOPC      H8X           -32.2783526760      -25.2860781236       -9.7769445014  MEMB      128             0.0000000000
     18135       156  DOPC      H8Y           -33.9894763809      -25.2058339319      -10.1498328836  MEMB      128             0.0000000000
     18136       156  DOPC      C39           -33.2121121758      -23.5417722377       -9.1635765301  MEMB      128             0.0000000000
     18137       156  DOPC      H9X           -34.1679542753      -23.0084900490       -9.0541424237  MEMB      128             0.0000000000
     18138       156  DOPC      C310          -32.2700738331      -23.1367492052       -8.2386854903  MEMB      128             0.0000000000
     18139       156  DOPC      H10X          -32.6366888834      -22.5118336094       -7.4109934440  MEMB      128             0.0000000000
     18140       156  DOPC      C311          -30.8898126135      -23.6145290137       -7.9759123198  MEMB      128             0.0000000000
     18141       156  DOPC      H11X          -30.0932577293      -22.8853506158       -7.7149142226  MEMB      128             0.0000000000
     18142       156  DOPC      H11Y          -30.5818373837      -24.3102986799       -8.7854654314  MEMB      128             0.0000000000
     18143       156  DOPC      C312          -30.8732078256      -24.5595834348       -6.6947928764  MEMB      128             0.0000000000
     18144       156  DOPC      H12X          -29.8233719716      -24.9212300399       -6.6576812035  MEMB      128             0.0000000000
     18145       156  DOPC      H12Y          -31.5019732622      -25.4657814261       -6.8281358692  MEMB      128             0.0000000000
     18146       156  DOPC      C313          -31.1349489603      -23.8660776481       -5.3962905888  MEMB      128             0.0000000000
     18147       156  DOPC      H13X          -30.6182765884      -22.8874573280       -5.2979402656  MEMB      128             0.0000000000
     18148       156  DOPC      H13Y          -32.2088531882      -23.5818762882       -5.3795425980  MEMB      128             0.0000000000
     18149       156  DOPC      C314          -30.8401775691      -24.7690108173       -4.1263903144  MEMB      128             0.0000000000
     18150       156  DOPC      H14X          -29.7358326721      -24.8371007171       -4.0258572073  MEMB      128             0.0000000000
     18151       156  DOPC      H14Y          -31.1309521669      -24.2553803245       -3.1851382928  MEMB      128             0.0000000000
     18152       156  DOPC      C315          -31.4579734533      -26.1438935686       -4.1531162996  MEMB      128             0.0000000000
     18153       156  DOPC      H15X          -31.2779901966      -26.7230189581       -5.0839976391  MEMB      128             0.0000000000
     18154       156  DOPC      H15Y          -32.5604989596      -26.0073517077       -4.1424104345  MEMB      128             0.0000000000
     18155       156  DOPC      C316          -31.0116731168      -27.0308623487       -3.0185970137  MEMB      128             0.0000000000
     18156       156  DOPC      H16X          -29.9007285161      -27.0285077190       -3.0077673593  MEMB      128             0.0000000000
     18157       156  DOPC      H16Y          -31.3280122469      -26.5074822876       -2.0910606353  MEMB      128             0.0000000000
     18158       156  DOPC      C317          -31.5220846812      -28.4868578598       -3.0519342677  MEMB      128             0.0000000000
     18159       156  DOPC      H17X          -31.9152083964      -28.7218132931       -4.0641450344  MEMB      128             0.0000000000
     18160       156  DOPC      H17Y          -30.7865565838      -29.2531826305       -2.7262571374  MEMB      128             0.0000000000
     18161       156  DOPC      C318          -32.7122932543      -28.6785976874       -2.0734940664  MEMB      128             0.0000000000
     18162       156  DOPC      H18X          -32.4091598330      -28.5084750731       -1.0182749840  MEMB      128             0.0000000000
     18163       156  DOPC      H18Y          -33.5842303551      -28.0709718722       -2.3972811064  MEMB      128             0.0000000000
     18164       156  DOPC      H18Z          -32.9618334215      -29.7611982130       -2.0683689798  MEMB      128             0.0000000000
     18165       157  DOPC      N              27.7287490909       28.6881360264      -20.1674657653  MEMB      129             0.0000000000
     18166       157  DOPC      C12            28.4904553607       29.9279891676      -20.4962722392  MEMB      129             0.0000000000
     18167       157  DOPC      H12A           27.7971500593       30.6058900888      -20.9718542367  MEMB      129             0.0000000000
     18168       157  DOPC      H12B           29.2381173329       29.6248114326      -21.2142449706  MEMB      129             0.0000000000
     18169       157  DOPC      C13            26.7023290676       28.9241226326      -19.0886383147  MEMB      129             0.0000000000
     18170       157  DOPC      H13A           26.0557830813       28.0593306071      -19.0659913498  MEMB      129             0.0000000000
     18171       157  DOPC      H13B           27.2856974698       29.0023414255      -18.1831201396  MEMB      129             0.0000000000
     18172       157  DOPC      H13C           26.2963424229       29.9170902215      -19.2134994311  MEMB      129             0.0000000000
     18173       157  DOPC      C14            28.6536422698       27.5562547248      -19.6707675423  MEMB      129             0.0000000000
     18174       157  DOPC      H14A           28.1032674295       26.9395614904      -18.9756581032  MEMB      129             0.0000000000
     18175       157  DOPC      H14B           29.1778568743       26.9305482230      -20.3779383396  MEMB      129             0.0000000000
     18176       157  DOPC      H14C           29.4477598957       28.0975655108      -19.1780611208  MEMB      129             0.0000000000
     18177       157  DOPC      C15            26.9829685887       28.1936488875      -21.4318550176  MEMB      129             0.0000000000
     18178       157  DOPC      H15A           26.4084605555       28.9595685504      -21.9315627143  MEMB      129             0.0000000000
     18179       157  DOPC      H15B           26.2360483804       27.4683619254      -21.1446809790  MEMB      129             0.0000000000
     18180       157  DOPC      H15C           27.7289829888       27.8239444442      -22.1197366118  MEMB      129             0.0000000000
     18181       157  DOPC      C11            29.0962378523       30.9095882650      -19.4543174946  MEMB      129             0.0000000000
     18182       157  DOPC      H11A           29.4299713386       31.8167015552      -20.0021207545  MEMB      129             0.0000000000
     18183       157  DOPC      H11B           28.3067038486       31.1838916842      -18.7223921854  MEMB      129             0.0000000000
     18184       157  DOPC      P              30.9467281754       31.1116027655      -17.7472996573  MEMB      129             0.0000000000
     18185       157  DOPC      O13            31.2221272164       32.4273184757      -18.2798692477  MEMB      129             0.0000000000
     18186       157  DOPC      O14            32.1969915516       30.4301849674      -17.3382961765  MEMB      129             0.0000000000
     18187       157  DOPC      O12            30.1711465245       30.2214371888      -18.8378341710  MEMB      129             0.0000000000
     18188       157  DOPC      O11            29.9175740990       31.2686267010      -16.4873843737  MEMB      129             0.0000000000
     18189       157  DOPC      C1             29.3395577006       30.0403745473      -16.0204887702  MEMB      129             0.0000000000
     18190       157  DOPC      HA             29.7992857034       29.6075980159      -15.1063359435  MEMB      129             0.0000000000
     18191       157  DOPC      HB             29.2448389037       29.1579761402      -16.6888618671  MEMB      129             0.0000000000
     18192       157  DOPC      C2             27.7633887547       30.4286216970      -15.7691028295  MEMB      129             0.0000000000
     18193       157  DOPC      HS             27.4394384501       31.0334427770      -16.6429269464  MEMB      129             0.0000000000
     18194       157  DOPC      O21            27.7635808637       31.2538713171      -14.5595880459  MEMB      129             0.0000000000
     18195       157  DOPC      C21            26.6232913101       31.9013260590      -14.4084826206  MEMB      129             0.0000000000
     18196       157  DOPC      O22            25.8449386361       32.1700945199      -15.2986700757  MEMB      129             0.0000000000
     18197       157  DOPC      C22            26.4109356313       32.1136448889      -12.9110402104  MEMB      129             0.0000000000
     18198       157  DOPC      H2R            26.0225739557       33.1455559957      -12.7744537833  MEMB      129             0.0000000000
     18199       157  DOPC      H2S            27.3630063227       32.0023746441      -12.3493454989  MEMB      129             0.0000000000
     18200       157  DOPC      C3             26.8801760297       29.1990357146      -15.6084988734  MEMB      129             0.0000000000
     18201       157  DOPC      HX             26.9561360055       28.5868221120      -16.5324825097  MEMB      129             0.0000000000
     18202       157  DOPC      HY             25.7892372483       29.4049051639      -15.5661698637  MEMB      129             0.0000000000
     18203       157  DOPC      O31            27.3348457158       28.4914226798      -14.4702309759  MEMB      129             0.0000000000
     18204       157  DOPC      C31            28.1153207257       27.4313280760      -14.7278906644  MEMB      129             0.0000000000
     18205       157  DOPC      O32            28.4268133395       26.9955464394      -15.7968703525  MEMB      129             0.0000000000
     18206       157  DOPC      C32            28.5393707874       26.8221232329      -13.3241340663  MEMB      129             0.0000000000
     18207       157  DOPC      H2X            28.4162986129       27.5044175710      -12.4560046715  MEMB      129             0.0000000000
     18208       157  DOPC      H2Y            27.9517200130       25.8856159993      -13.2148545035  MEMB      129             0.0000000000
     18209       157  DOPC      C23            25.4331674605       31.0734599672      -12.3744143364  MEMB      129             0.0000000000
     18210       157  DOPC      H3R            25.9448522179       30.0923650397      -12.4741758547  MEMB      129             0.0000000000
     18211       157  DOPC      H3S            24.5019595297       31.1221645886      -12.9784012784  MEMB      129             0.0000000000
     18212       157  DOPC      C24            25.0086421183       31.3286678694      -10.9269491961  MEMB      129             0.0000000000
     18213       157  DOPC      H4R            24.2711369015       30.5634380887      -10.6031742050  MEMB      129             0.0000000000
     18214       157  DOPC      H4S            24.5703018149       32.3484425035      -10.8796335067  MEMB      129             0.0000000000
     18215       157  DOPC      C25            26.1574856830       31.0294467389       -9.8841988912  MEMB      129             0.0000000000
     18216       157  DOPC      H5R            26.8392467332       31.9061908482       -9.9132269628  MEMB      129             0.0000000000
     18217       157  DOPC      H5S            26.7143691913       30.1407775276      -10.2508987655  MEMB      129             0.0000000000
     18218       157  DOPC      C26            25.6132442833       30.5019023548       -8.5330808324  MEMB      129             0.0000000000
     18219       157  DOPC      H6R            26.4229352050       30.0513009821       -7.9201539160  MEMB      129             0.0000000000
     18220       157  DOPC      H6S            24.9299567786       29.6643265288       -8.7898023205  MEMB      129             0.0000000000
     18221       157  DOPC      C27            24.8251491377       31.5273692682       -7.6654201946  MEMB      129             0.0000000000
     18222       157  DOPC      H7R            23.9040977126       31.7958499174       -8.2256914036  MEMB      129             0.0000000000
     18223       157  DOPC      H7S            25.4633057467       32.4293472894       -7.5491766497  MEMB      129             0.0000000000
     18224       157  DOPC      C28            24.4984181629       30.9352661302       -6.2539629552  MEMB      129             0.0000000000
     18225       157  DOPC      H8R            24.0450055929       31.6665079062       -5.5510946684  MEMB      129             0.0000000000
     18226       157  DOPC      H8S            25.5376403526       30.7635738438       -5.9006076595  MEMB      129             0.0000000000
     18227       157  DOPC      C29            23.6303440244       29.7264970534       -6.4490350996  MEMB      129             0.0000000000
     18228       157  DOPC      H9R            22.7385012700       29.9324676298       -7.0591109608  MEMB      129             0.0000000000
     18229       157  DOPC      C210           23.6991689465       28.5152092464       -5.8084712001  MEMB      129             0.0000000000
     18230       157  DOPC      H10R           22.9175296823       27.7673250790       -6.0077431897  MEMB      129             0.0000000000
     18231       157  DOPC      C211           24.7452235294       28.1568458831       -4.7705810348  MEMB      129             0.0000000000
     18232       157  DOPC      H11R           24.2582049212       27.3273350643       -4.2146617053  MEMB      129             0.0000000000
     18233       157  DOPC      H11S           24.8971977759       28.9977114753       -4.0605321248  MEMB      129             0.0000000000
     18234       157  DOPC      C212           26.0776102609       27.6565524775       -5.2615102531  MEMB      129             0.0000000000
     18235       157  DOPC      H12R           26.5003121015       28.3829184225       -5.9881715167  MEMB      129             0.0000000000
     18236       157  DOPC      H12S           26.0189741114       26.7288078495       -5.8699275934  MEMB      129             0.0000000000
     18237       157  DOPC      C213           27.1018289686       27.4294963800       -4.1737103791  MEMB      129             0.0000000000
     18238       157  DOPC      H13R           27.0146123282       28.3394837524       -3.5423332928  MEMB      129             0.0000000000
     18239       157  DOPC      H13S           28.1047001134       27.3177453418       -4.6385568719  MEMB      129             0.0000000000
     18240       157  DOPC      C214           26.8759398316       26.3150403221       -3.2184111003  MEMB      129             0.0000000000
     18241       157  DOPC      H14R           26.7050310633       25.4258756406       -3.8622264607  MEMB      129             0.0000000000
     18242       157  DOPC      H14S           25.9307613598       26.4253372736       -2.6450063892  MEMB      129             0.0000000000
     18243       157  DOPC      C215           28.0989538826       25.9209331623       -2.2256304019  MEMB      129             0.0000000000
     18244       157  DOPC      H15R           29.0245176704       26.0836214942       -2.8182386821  MEMB      129             0.0000000000
     18245       157  DOPC      H15S           27.9922395129       24.8978625787       -1.8057979448  MEMB      129             0.0000000000
     18246       157  DOPC      C216           28.0553156368       26.8356292059       -1.0048724730  MEMB      129             0.0000000000
     18247       157  DOPC      H16R           27.5692097519       26.2279116824       -0.2119645999  MEMB      129             0.0000000000
     18248       157  DOPC      H16S           27.3230542605       27.6705851994       -1.0359014911  MEMB      129             0.0000000000
     18249       157  DOPC      C217           29.4762511412       27.3866641689       -0.5606556368  MEMB      129             0.0000000000
     18250       157  DOPC      H17R           29.3230906749       28.0306624362        0.3316054844  MEMB      129             0.0000000000
     18251       157  DOPC      H17S           29.8482334272       27.9724485051       -1.4283006771  MEMB      129             0.0000000000
     18252       157  DOPC      C218           30.4309334774       26.2825191238       -0.2474862387  MEMB      129             0.0000000000
     18253       157  DOPC      H18R           30.6069336989       25.7270444619       -1.1934221754  MEMB      129             0.0000000000
     18254       157  DOPC      H18S           29.9666338283       25.4898726582        0.3773795389  MEMB      129             0.0000000000
     18255       157  DOPC      H18T           31.3974827854       26.5663723004        0.2210547612  MEMB      129             0.0000000000
     18256       157  DOPC      C33            30.0022230205       26.3257921096      -13.3604445005  MEMB      129             0.0000000000
     18257       157  DOPC      H3X            30.1862770887       25.6782597467      -14.2442698293  MEMB      129             0.0000000000
     18258       157  DOPC      H3Y            30.2001525166       25.7741683747      -12.4165928245  MEMB      129             0.0000000000
     18259       157  DOPC      C34            31.0541707619       27.4301433499      -13.4613938577  MEMB      129             0.0000000000
     18260       157  DOPC      H4X            31.0509082408       27.8884024603      -14.4734757270  MEMB      129             0.0000000000
     18261       157  DOPC      H4Y            32.0995365847       27.0917119931      -13.2970906137  MEMB      129             0.0000000000
     18262       157  DOPC      C35            30.9267200734       28.4754687587      -12.3293570700  MEMB      129             0.0000000000
     18263       157  DOPC      H5X            30.9881018339       27.9735386769      -11.3401049671  MEMB      129             0.0000000000
     18264       157  DOPC      H5Y            29.8598884742       28.7785776701      -12.3950554501  MEMB      129             0.0000000000
     18265       157  DOPC      C36            31.9334262857       29.5923783768      -12.3747852664  MEMB      129             0.0000000000
     18266       157  DOPC      H6X            32.8805010303       29.0504516844      -12.5837969066  MEMB      129             0.0000000000
     18267       157  DOPC      H6Y            31.6444108221       30.3511055412      -13.1331548200  MEMB      129             0.0000000000
     18268       157  DOPC      C37            31.9362719654       30.3626838218      -11.0677059634  MEMB      129             0.0000000000
     18269       157  DOPC      H7X            31.9450666274       29.7012617684      -10.1750892546  MEMB      129             0.0000000000
     18270       157  DOPC      H7Y            32.9489120886       30.8012814116      -11.1962087830  MEMB      129             0.0000000000
     18271       157  DOPC      C38            30.7966474830       31.4125330684      -10.8839034298  MEMB      129             0.0000000000
     18272       157  DOPC      H8X            29.7988211788       30.9491101703      -11.0385094724  MEMB      129             0.0000000000
     18273       157  DOPC      H8Y            31.0081788679       32.1607021201      -11.6775150194  MEMB      129             0.0000000000
     18274       157  DOPC      C39            31.0112121919       32.1608047461       -9.5166221254  MEMB      129             0.0000000000
     18275       157  DOPC      H9X            31.6781948883       33.0332095280       -9.5802133695  MEMB      129             0.0000000000
     18276       157  DOPC      C310           30.4374800396       31.8118180937       -8.3337203982  MEMB      129             0.0000000000
     18277       157  DOPC      H10X           30.7774773959       32.3956099336       -7.4656252381  MEMB      129             0.0000000000
     18278       157  DOPC      C311           29.4650556652       30.6915214810       -8.0581296494  MEMB      129             0.0000000000
     18279       157  DOPC      H11X           29.1615748766       30.2079602584       -9.0112233663  MEMB      129             0.0000000000
     18280       157  DOPC      H11Y           28.5572626801       30.9882858187       -7.4905338788  MEMB      129             0.0000000000
     18281       157  DOPC      C312           30.2213350853       29.4332374322       -7.4497732705  MEMB      129             0.0000000000
     18282       157  DOPC      H12X           30.9062490084       29.0253912559       -8.2236435704  MEMB      129             0.0000000000
     18283       157  DOPC      H12Y           29.5370094042       28.6054321643       -7.1655940407  MEMB      129             0.0000000000
     18284       157  DOPC      C313           30.9676466091       29.7981502161       -6.1532515702  MEMB      129             0.0000000000
     18285       157  DOPC      H13X           31.7006688154       29.0376509599       -5.8088098134  MEMB      129             0.0000000000
     18286       157  DOPC      H13Y           31.6563184405       30.6499226141       -6.3390886251  MEMB      129             0.0000000000
     18287       157  DOPC      C314           30.0991468243       30.2271580919       -4.9935090479  MEMB      129             0.0000000000
     18288       157  DOPC      H14X           29.5923235640       31.1727114247       -5.2822640521  MEMB      129             0.0000000000
     18289       157  DOPC      H14Y           29.3270276126       29.4381044940       -4.8688188544  MEMB      129             0.0000000000
     18290       157  DOPC      C315           30.9814827117       30.5006820868       -3.7038908208  MEMB      129             0.0000000000
     18291       157  DOPC      H15X           31.8135891909       31.2118552025       -3.8940291977  MEMB      129             0.0000000000
     18292       157  DOPC      H15Y           31.5223293746       29.6026869615       -3.3359091653  MEMB      129             0.0000000000
     18293       157  DOPC      C316           30.1744461764       30.8327424551       -2.4611361808  MEMB      129             0.0000000000
     18294       157  DOPC      H16X           29.3763517521       31.5677631691       -2.7001148913  MEMB      129             0.0000000000
     18295       157  DOPC      H16Y           29.5566072985       29.9347093234       -2.2463508418  MEMB      129             0.0000000000
     18296       157  DOPC      C317           30.8376256188       31.1769418880       -1.0559811147  MEMB      129             0.0000000000
     18297       157  DOPC      H17X           31.2171938871       32.1617397027       -1.4030005464  MEMB      129             0.0000000000
     18298       157  DOPC      H17Y           30.1245979621       31.3212530501       -0.2162862566  MEMB      129             0.0000000000
     18299       157  DOPC      C318           32.1002281199       30.3975938603       -0.5157795310  MEMB      129             0.0000000000
     18300       157  DOPC      H18X           31.7660602801       29.3524485746       -0.3416402766  MEMB      129             0.0000000000
     18301       157  DOPC      H18Y           32.9654420129       30.3563454227       -1.2114972942  MEMB      129             0.0000000000
     18302       157  DOPC      H18Z           32.4389215275       30.7047327813        0.4967787555  MEMB      129             0.0000000000
     18303       158  DOPC      N             -23.9484064990       33.2152757503      -19.6811469898  MEMB      130             0.0000000000
     18304       158  DOPC      C12           -24.6149198929       32.2044501351      -18.7393086383  MEMB      130             0.0000000000
     18305       158  DOPC      H12A          -23.9498291777       31.8709199082      -17.9564856617  MEMB      130             0.0000000000
     18306       158  DOPC      H12B          -24.7586143318       31.2930432129      -19.3006368329  MEMB      130             0.0000000000
     18307       158  DOPC      C13           -23.5795154800       34.4955809032      -18.9939436201  MEMB      130             0.0000000000
     18308       158  DOPC      H13A          -22.8108783912       34.3538209808      -18.2486240257  MEMB      130             0.0000000000
     18309       158  DOPC      H13B          -23.2460405644       35.2069262543      -19.7350118642  MEMB      130             0.0000000000
     18310       158  DOPC      H13C          -24.4617124293       34.8422566880      -18.4763101943  MEMB      130             0.0000000000
     18311       158  DOPC      C14           -24.8026362019       33.4341894298      -20.8904989634  MEMB      130             0.0000000000
     18312       158  DOPC      H14A          -25.7074349406       33.8936355709      -20.5208389067  MEMB      130             0.0000000000
     18313       158  DOPC      H14B          -24.3513404111       34.1824526611      -21.5251911310  MEMB      130             0.0000000000
     18314       158  DOPC      H14C          -25.0672136165       32.5617734111      -21.4695403727  MEMB      130             0.0000000000
     18315       158  DOPC      C15           -22.5986843927       32.6695288805      -20.1343338912  MEMB      130             0.0000000000
     18316       158  DOPC      H15A          -21.9504840154       33.3601066380      -20.6533123997  MEMB      130             0.0000000000
     18317       158  DOPC      H15B          -22.6199782777       31.8643677684      -20.8538212452  MEMB      130             0.0000000000
     18318       158  DOPC      H15C          -22.1987732525       32.2692645469      -19.2144102304  MEMB      130             0.0000000000
     18319       158  DOPC      C11           -25.9669398471       32.6681084874      -18.0783288367  MEMB      130             0.0000000000
     18320       158  DOPC      H11A          -26.3079279921       31.9117856338      -17.3393945479  MEMB      130             0.0000000000
     18321       158  DOPC      H11B          -25.7835773161       33.6420307603      -17.5761590469  MEMB      130             0.0000000000
     18322       158  DOPC      P             -28.4665148653       32.9451976628      -18.5577742655  MEMB      130             0.0000000000
     18323       158  DOPC      O13           -28.8107698446       31.5768026707      -18.1388485790  MEMB      130             0.0000000000
     18324       158  DOPC      O14           -29.3404459511       33.6418650988      -19.5166390468  MEMB      130             0.0000000000
     18325       158  DOPC      O12           -26.9680709374       32.9268073887      -19.0451506185  MEMB      130             0.0000000000
     18326       158  DOPC      O11           -28.3291063914       33.8044048947      -17.2240265502  MEMB      130             0.0000000000
     18327       158  DOPC      C1            -28.7935853243       35.1612206311      -17.4105680195  MEMB      130             0.0000000000
     18328       158  DOPC      HA            -29.8453475092       35.1733740306      -17.7682966924  MEMB      130             0.0000000000
     18329       158  DOPC      HB            -28.1299464842       35.6316776654      -18.1672545850  MEMB      130             0.0000000000
     18330       158  DOPC      C2            -28.7481783924       35.9607800028      -16.0354963595  MEMB      130             0.0000000000
     18331       158  DOPC      HS            -28.2547547054       36.9523844561      -16.1225276805  MEMB      130             0.0000000000
     18332       158  DOPC      O21           -28.0507775855       35.3047796703      -14.9932221953  MEMB      130             0.0000000000
     18333       158  DOPC      C21           -26.7379300552       35.3729303209      -14.9652579762  MEMB      130             0.0000000000
     18334       158  DOPC      O22           -25.9958217796       35.8559774041      -15.7525037228  MEMB      130             0.0000000000
     18335       158  DOPC      C22           -26.1895690098       34.7260511512      -13.7063007107  MEMB      130             0.0000000000
     18336       158  DOPC      H2R           -25.3528028874       34.0849618085      -14.0572251516  MEMB      130             0.0000000000
     18337       158  DOPC      H2S           -26.9158522143       34.0134730982      -13.2601321380  MEMB      130             0.0000000000
     18338       158  DOPC      C3            -30.2087766354       36.2579003742      -15.5305514817  MEMB      130             0.0000000000
     18339       158  DOPC      HX            -30.7071665752       36.7246171141      -16.4069672205  MEMB      130             0.0000000000
     18340       158  DOPC      HY            -30.3640358777       36.9610439634      -14.6844989521  MEMB      130             0.0000000000
     18341       158  DOPC      O31           -30.8446006415       35.0059711927      -15.1979869542  MEMB      130             0.0000000000
     18342       158  DOPC      C31           -30.6679519652       34.5626563006      -14.0015997118  MEMB      130             0.0000000000
     18343       158  DOPC      O32           -30.0740720471       35.0463364396      -13.0723325565  MEMB      130             0.0000000000
     18344       158  DOPC      C32           -31.3320732723       33.1723356603      -13.9871410019  MEMB      130             0.0000000000
     18345       158  DOPC      H2X           -31.2720378564       32.7070266761      -12.9800642757  MEMB      130             0.0000000000
     18346       158  DOPC      H2Y           -32.3979225936       33.2294802239      -14.2953946369  MEMB      130             0.0000000000
     18347       158  DOPC      C23           -25.6632084796       35.9019499132      -12.8553797835  MEMB      130             0.0000000000
     18348       158  DOPC      H3R           -25.0750176787       36.6440693489      -13.4364230737  MEMB      130             0.0000000000
     18349       158  DOPC      H3S           -25.0055034705       35.4460912621      -12.0847057327  MEMB      130             0.0000000000
     18350       158  DOPC      C24           -26.7906801748       36.6638728657      -12.0754907910  MEMB      130             0.0000000000
     18351       158  DOPC      H4R           -27.6205469728       37.0088785449      -12.7286473492  MEMB      130             0.0000000000
     18352       158  DOPC      H4S           -26.3879028160       37.6753948955      -11.8543239396  MEMB      130             0.0000000000
     18353       158  DOPC      C25           -27.2041964609       36.1194052247      -10.6770453177  MEMB      130             0.0000000000
     18354       158  DOPC      H5R           -26.3240765914       35.6576946218      -10.1805242575  MEMB      130             0.0000000000
     18355       158  DOPC      H5S           -27.9318254827       35.3254134017      -10.9499085190  MEMB      130             0.0000000000
     18356       158  DOPC      C26           -28.0070893060       37.2070973382       -9.8050573607  MEMB      130             0.0000000000
     18357       158  DOPC      H6R           -28.6377383787       37.8708834756      -10.4343357957  MEMB      130             0.0000000000
     18358       158  DOPC      H6S           -27.3211596815       37.9932624433       -9.4232654763  MEMB      130             0.0000000000
     18359       158  DOPC      C27           -28.6898825868       36.4848124594       -8.7132847121  MEMB      130             0.0000000000
     18360       158  DOPC      H7R           -28.1674138350       35.5529187442       -8.4084545062  MEMB      130             0.0000000000
     18361       158  DOPC      H7S           -29.7636289235       36.3499323202       -8.9646751517  MEMB      130             0.0000000000
     18362       158  DOPC      C28           -28.7942662109       37.3473278080       -7.3928001409  MEMB      130             0.0000000000
     18363       158  DOPC      H8R           -29.4575624739       36.7707451885       -6.7131592364  MEMB      130             0.0000000000
     18364       158  DOPC      H8S           -29.2100808952       38.3533636349       -7.6148593960  MEMB      130             0.0000000000
     18365       158  DOPC      C29           -27.4955131358       37.4677140325       -6.7146970656  MEMB      130             0.0000000000
     18366       158  DOPC      H9R           -26.9080175284       38.2362283173       -7.2383712396  MEMB      130             0.0000000000
     18367       158  DOPC      C210          -27.0829411735       36.9823898974       -5.5541687449  MEMB      130             0.0000000000
     18368       158  DOPC      H10R          -26.0814110640       37.1628073852       -5.1365725499  MEMB      130             0.0000000000
     18369       158  DOPC      C211          -27.9622626732       36.1653853111       -4.6112376355  MEMB      130             0.0000000000
     18370       158  DOPC      H11R          -27.4678660490       35.6245971579       -3.7761082799  MEMB      130             0.0000000000
     18371       158  DOPC      H11S          -28.6582914476       35.4407851181       -5.0853885607  MEMB      130             0.0000000000
     18372       158  DOPC      C212          -29.0472579671       37.0817555549       -3.9633607168  MEMB      130             0.0000000000
     18373       158  DOPC      H12R          -29.6789488425       37.4955876605       -4.7782415507  MEMB      130             0.0000000000
     18374       158  DOPC      H12S          -28.4562249895       37.8920445151       -3.4854142125  MEMB      130             0.0000000000
     18375       158  DOPC      C213          -30.0212130864       36.4979651992       -2.7551904177  MEMB      130             0.0000000000
     18376       158  DOPC      H13R          -30.5099127129       37.3404611329       -2.2206869991  MEMB      130             0.0000000000
     18377       158  DOPC      H13S          -29.4106047630       36.0141562042       -1.9630989858  MEMB      130             0.0000000000
     18378       158  DOPC      C214          -31.1208847638       35.4646557951       -3.1406038084  MEMB      130             0.0000000000
     18379       158  DOPC      H14R          -31.4121605563       35.4753597678       -4.2126874121  MEMB      130             0.0000000000
     18380       158  DOPC      H14S          -32.0732632645       35.7454899163       -2.6421761435  MEMB      130             0.0000000000
     18381       158  DOPC      C215          -30.8017103766       34.0001284581       -2.7129002915  MEMB      130             0.0000000000
     18382       158  DOPC      H15R          -29.8023302229       33.7889436825       -3.1498911802  MEMB      130             0.0000000000
     18383       158  DOPC      H15S          -31.5930080358       33.3686022849       -3.1704406100  MEMB      130             0.0000000000
     18384       158  DOPC      C216          -30.7823025433       33.7154386474       -1.2127361956  MEMB      130             0.0000000000
     18385       158  DOPC      H16R          -31.6854706758       34.1831177537       -0.7656530875  MEMB      130             0.0000000000
     18386       158  DOPC      H16S          -29.9242907404       34.3433156752       -0.8903900046  MEMB      130             0.0000000000
     18387       158  DOPC      C217          -30.4928863423       32.3142679529       -0.7972178515  MEMB      130             0.0000000000
     18388       158  DOPC      H17R          -29.6275491096       32.0040638715       -1.4211455409  MEMB      130             0.0000000000
     18389       158  DOPC      H17S          -31.3810413251       31.7612519205       -1.1709479890  MEMB      130             0.0000000000
     18390       158  DOPC      C218          -30.2917737615       32.0387185122        0.6553932841  MEMB      130             0.0000000000
     18391       158  DOPC      H18R          -29.2307586869       32.1598861076        0.9618027638  MEMB      130             0.0000000000
     18392       158  DOPC      H18S          -30.4058315706       30.9671653137        0.9257381260  MEMB      130             0.0000000000
     18393       158  DOPC      H18T          -30.8219549833       32.8220010238        1.2382292453  MEMB      130             0.0000000000
     18394       158  DOPC      C33           -30.5467320698       32.2695417126      -15.0029149818  MEMB      130             0.0000000000
     18395       158  DOPC      H3X           -30.4320963471       32.7970464877      -15.9739550177  MEMB      130             0.0000000000
     18396       158  DOPC      H3Y           -31.0438653346       31.2978717538      -15.2103688400  MEMB      130             0.0000000000
     18397       158  DOPC      C34           -29.2181167837       31.8050967843      -14.5127148094  MEMB      130             0.0000000000
     18398       158  DOPC      H4X           -28.5377553976       32.5060604420      -13.9834895614  MEMB      130             0.0000000000
     18399       158  DOPC      H4Y           -28.6079235799       31.5653306680      -15.4096525423  MEMB      130             0.0000000000
     18400       158  DOPC      C35           -29.1478561075       30.4769249069      -13.6431085008  MEMB      130             0.0000000000
     18401       158  DOPC      H5X           -29.7018223706       29.7029900385      -14.2162289351  MEMB      130             0.0000000000
     18402       158  DOPC      H5Y           -29.7356279101       30.6590094191      -12.7180728274  MEMB      130             0.0000000000
     18403       158  DOPC      C36           -27.7455941344       29.8816097341      -13.2265567401  MEMB      130             0.0000000000
     18404       158  DOPC      H6X           -27.8569594300       28.8044754406      -12.9781619986  MEMB      130             0.0000000000
     18405       158  DOPC      H6Y           -27.1935015422       29.9197968522      -14.1899134219  MEMB      130             0.0000000000
     18406       158  DOPC      C37           -27.2298116202       30.9933000347      -12.2471669952  MEMB      130             0.0000000000
     18407       158  DOPC      H7X           -27.1528565039       31.9599177485      -12.7894300388  MEMB      130             0.0000000000
     18408       158  DOPC      H7Y           -28.0199009379       31.1130609364      -11.4753272719  MEMB      130             0.0000000000
     18409       158  DOPC      C38           -25.8124374942       30.7904983842      -11.5355622982  MEMB      130             0.0000000000
     18410       158  DOPC      H8X           -25.0857316655       30.8666580870      -12.3724730720  MEMB      130             0.0000000000
     18411       158  DOPC      H8Y           -25.6612860444       29.8356838125      -10.9880193743  MEMB      130             0.0000000000
     18412       158  DOPC      C39           -25.4093954402       31.8336032230      -10.5592908830  MEMB      130             0.0000000000
     18413       158  DOPC      H9X           -24.6681019132       32.5726684823      -10.8973233827  MEMB      130             0.0000000000
     18414       158  DOPC      C310          -25.8525659152       31.8225653492       -9.2543403717  MEMB      130             0.0000000000
     18415       158  DOPC      H10X          -25.2860655613       32.4831592957       -8.5815163636  MEMB      130             0.0000000000
     18416       158  DOPC      C311          -26.7407263496       30.8463816324       -8.5036060145  MEMB      130             0.0000000000
     18417       158  DOPC      H11X          -26.3445950088       30.8776367063       -7.4660972923  MEMB      130             0.0000000000
     18418       158  DOPC      H11Y          -26.5957344443       29.8334671636       -8.9363899122  MEMB      130             0.0000000000
     18419       158  DOPC      C312          -28.2362893014       31.2187132370       -8.5120124811  MEMB      130             0.0000000000
     18420       158  DOPC      H12X          -28.8231910526       30.3947642296       -8.0526914773  MEMB      130             0.0000000000
     18421       158  DOPC      H12Y          -28.5838491965       31.0776363331       -9.5577759464  MEMB      130             0.0000000000
     18422       158  DOPC      C313          -28.5922100475       32.6583448894       -8.0134333017  MEMB      130             0.0000000000
     18423       158  DOPC      H13X          -28.1092176647       33.3541095683       -8.7324267882  MEMB      130             0.0000000000
     18424       158  DOPC      H13Y          -29.6675243425       32.9134761554       -7.8997317741  MEMB      130             0.0000000000
     18425       158  DOPC      C314          -28.0315795699       32.8794990095       -6.6007714367  MEMB      130             0.0000000000
     18426       158  DOPC      H14X          -27.0341748622       33.3598485006       -6.6944156085  MEMB      130             0.0000000000
     18427       158  DOPC      H14Y          -28.7062480190       33.6327430336       -6.1405899346  MEMB      130             0.0000000000
     18428       158  DOPC      C315          -28.0389459008       31.6816053943       -5.5937325444  MEMB      130             0.0000000000
     18429       158  DOPC      H15X          -27.4806592904       30.8115461565       -6.0007137776  MEMB      130             0.0000000000
     18430       158  DOPC      H15Y          -29.0841708428       31.3165756967       -5.5011081852  MEMB      130             0.0000000000
     18431       158  DOPC      C316          -27.4867600568       32.0250415689       -4.2208345987  MEMB      130             0.0000000000
     18432       158  DOPC      H16X          -28.0254437406       32.9153271060       -3.8315625796  MEMB      130             0.0000000000
     18433       158  DOPC      H16Y          -27.7112611611       31.1939851657       -3.5185066250  MEMB      130             0.0000000000
     18434       158  DOPC      C317          -25.9474609191       32.2144777837       -4.0051892153  MEMB      130             0.0000000000
     18435       158  DOPC      H17X          -25.4287971926       31.2321233329       -3.9881988053  MEMB      130             0.0000000000
     18436       158  DOPC      H17Y          -25.5443466139       32.8346417678       -4.8341741704  MEMB      130             0.0000000000
     18437       158  DOPC      C318          -25.4979996619       32.9506474228       -2.7284018215  MEMB      130             0.0000000000
     18438       158  DOPC      H18X          -24.4089973376       33.0031732686       -2.5147763048  MEMB      130             0.0000000000
     18439       158  DOPC      H18Y          -25.9205928675       33.9741019782       -2.8193788159  MEMB      130             0.0000000000
     18440       158  DOPC      H18Z          -25.8574221994       32.4236015432       -1.8188089788  MEMB      130             0.0000000000
     18441       159  DOPC      N             -31.2141664130       25.6685598680      -18.9727203593  MEMB      131             0.0000000000
     18442       159  DOPC      C12           -31.9593476137       26.2415691418      -17.7607236025  MEMB      131             0.0000000000
     18443       159  DOPC      H12A          -31.6191156319       27.2644272845      -17.6943657002  MEMB      131             0.0000000000
     18444       159  DOPC      H12B          -31.7335213427       25.7214123549      -16.8415722937  MEMB      131             0.0000000000
     18445       159  DOPC      C13           -29.8576357978       25.2752307804      -18.4545649101  MEMB      131             0.0000000000
     18446       159  DOPC      H13A          -29.2021959210       24.8641164755      -19.2080789539  MEMB      131             0.0000000000
     18447       159  DOPC      H13B          -29.3331099072       26.1191791788      -18.0314531708  MEMB      131             0.0000000000
     18448       159  DOPC      H13C          -30.0138728203       24.7675356928      -17.5142268458  MEMB      131             0.0000000000
     18449       159  DOPC      C14           -31.1158176303       26.7654523464      -20.0784629648  MEMB      131             0.0000000000
     18450       159  DOPC      H14A          -31.0161548719       27.7730109792      -19.7025733655  MEMB      131             0.0000000000
     18451       159  DOPC      H14B          -30.3847759055       26.5999381680      -20.8560124302  MEMB      131             0.0000000000
     18452       159  DOPC      H14C          -32.0613717215       26.8519627018      -20.5930922080  MEMB      131             0.0000000000
     18453       159  DOPC      C15           -31.8609660734       24.4034905768      -19.4621954449  MEMB      131             0.0000000000
     18454       159  DOPC      H15A          -32.9280746533       24.4682758901      -19.6154345579  MEMB      131             0.0000000000
     18455       159  DOPC      H15B          -31.6502686001       23.6440464750      -18.7237843119  MEMB      131             0.0000000000
     18456       159  DOPC      H15C          -31.4109976746       24.0801521911      -20.3892233217  MEMB      131             0.0000000000
     18457       159  DOPC      C11           -33.5221024267       26.2067397332      -17.8945912278  MEMB      131             0.0000000000
     18458       159  DOPC      H11A          -34.0072379551       25.2116403844      -17.8010934154  MEMB      131             0.0000000000
     18459       159  DOPC      H11B          -33.8585491233       26.8114299328      -17.0254108330  MEMB      131             0.0000000000
     18460       159  DOPC      P             -34.5221108404       28.2183228751      -19.3162335247  MEMB      131             0.0000000000
     18461       159  DOPC      O13           -35.8451801700       28.3298420655      -18.6133559716  MEMB      131             0.0000000000
     18462       159  DOPC      O14           -34.4736022265       28.5077495306      -20.7899655897  MEMB      131             0.0000000000
     18463       159  DOPC      O12           -34.0170058750       26.7003638688      -19.1587997747  MEMB      131             0.0000000000
     18464       159  DOPC      O11           -33.4667713332       29.0901674135      -18.4983866324  MEMB      131             0.0000000000
     18465       159  DOPC      C1            -33.4820122936       30.5095557139      -18.5780878545  MEMB      131             0.0000000000
     18466       159  DOPC      HA            -34.4164431137       30.9811120097      -18.9506396694  MEMB      131             0.0000000000
     18467       159  DOPC      HB            -32.7056454269       30.7411612711      -19.3383077835  MEMB      131             0.0000000000
     18468       159  DOPC      C2            -32.9825633327       31.1355490429      -17.2753590986  MEMB      131             0.0000000000
     18469       159  DOPC      HS            -32.6553101163       32.1714442046      -17.5080559061  MEMB      131             0.0000000000
     18470       159  DOPC      O21           -31.9693192679       30.2814787496      -16.6256562096  MEMB      131             0.0000000000
     18471       159  DOPC      C21           -30.7533948309       30.3562027416      -17.0769453246  MEMB      131             0.0000000000
     18472       159  DOPC      O22           -30.4447447668       31.1554750542      -17.9534956648  MEMB      131             0.0000000000
     18473       159  DOPC      C22           -29.7947209466       29.3844568522      -16.3929827833  MEMB      131             0.0000000000
     18474       159  DOPC      H2R           -28.7432598241       29.7120399912      -16.5394027850  MEMB      131             0.0000000000
     18475       159  DOPC      H2S           -29.9528664057       28.3597949339      -16.7922058417  MEMB      131             0.0000000000
     18476       159  DOPC      C3            -34.1588487338       31.2766966058      -16.3835312873  MEMB      131             0.0000000000
     18477       159  DOPC      HX            -34.8908627590       31.9231137022      -16.9132684706  MEMB      131             0.0000000000
     18478       159  DOPC      HY            -33.8751730201       31.8526131025      -15.4767956861  MEMB      131             0.0000000000
     18479       159  DOPC      O31           -34.7209016065       29.9404961539      -16.0659262572  MEMB      131             0.0000000000
     18480       159  DOPC      C31           -35.3337007524       29.8998539631      -14.9550039669  MEMB      131             0.0000000000
     18481       159  DOPC      O32           -35.3685355324       30.7762900099      -14.0841129986  MEMB      131             0.0000000000
     18482       159  DOPC      C32           -36.0096666363       28.5198418167      -14.9191241264  MEMB      131             0.0000000000
     18483       159  DOPC      H2X           -36.3250610013       28.2565650514      -15.9513704457  MEMB      131             0.0000000000
     18484       159  DOPC      H2Y           -35.2802182770       27.7597638969      -14.5662672304  MEMB      131             0.0000000000
     18485       159  DOPC      C23           -30.0685986924       29.3183257773      -14.9123834631  MEMB      131             0.0000000000
     18486       159  DOPC      H3R           -30.2579346090       30.3626173652      -14.5838596153  MEMB      131             0.0000000000
     18487       159  DOPC      H3S           -29.1174595418       29.0866627169      -14.3870385337  MEMB      131             0.0000000000
     18488       159  DOPC      C24           -31.0361334106       28.1434508613      -14.4251771963  MEMB      131             0.0000000000
     18489       159  DOPC      H4R           -30.9025906010       27.1071467833      -14.8027496624  MEMB      131             0.0000000000
     18490       159  DOPC      H4S           -32.0478091716       28.4646530871      -14.7532969831  MEMB      131             0.0000000000
     18491       159  DOPC      C25           -30.9860801121       27.9265564370      -12.8928717499  MEMB      131             0.0000000000
     18492       159  DOPC      H5R           -31.0760708523       28.9937641653      -12.5974224541  MEMB      131             0.0000000000
     18493       159  DOPC      H5S           -30.0567666125       27.5001511806      -12.4582731519  MEMB      131             0.0000000000
     18494       159  DOPC      C26           -32.1349347430       27.0061539888      -12.3225968619  MEMB      131             0.0000000000
     18495       159  DOPC      H6R           -31.7742441188       25.9590315600      -12.4106759068  MEMB      131             0.0000000000
     18496       159  DOPC      H6S           -33.0006521000       27.2622690941      -12.9700989308  MEMB      131             0.0000000000
     18497       159  DOPC      C27           -32.4079967848       27.2382011400      -10.7864806483  MEMB      131             0.0000000000
     18498       159  DOPC      H7R           -31.4687164003       27.0553170954      -10.2220108823  MEMB      131             0.0000000000
     18499       159  DOPC      H7S           -33.1778720068       26.4700090620      -10.5595584667  MEMB      131             0.0000000000
     18500       159  DOPC      C28           -33.0005430656       28.5277913034      -10.1850730005  MEMB      131             0.0000000000
     18501       159  DOPC      H8R           -32.2417037296       29.2920223131      -10.4579006891  MEMB      131             0.0000000000
     18502       159  DOPC      H8S           -32.8832273353       28.2937280415       -9.1053635217  MEMB      131             0.0000000000
     18503       159  DOPC      C29           -34.3719321586       28.9763478866      -10.7409892362  MEMB      131             0.0000000000
     18504       159  DOPC      H9R           -34.5587517484       28.7496615905      -11.8010419169  MEMB      131             0.0000000000
     18505       159  DOPC      C210          -35.4365750126       29.3934218985      -10.0471780546  MEMB      131             0.0000000000
     18506       159  DOPC      H10R          -36.3217880513       29.6907723845      -10.6285389838  MEMB      131             0.0000000000
     18507       159  DOPC      C211          -35.6051552511       29.5530003569       -8.5753590347  MEMB      131             0.0000000000
     18508       159  DOPC      H11R          -36.2747192503       30.3609677735       -8.2104016563  MEMB      131             0.0000000000
     18509       159  DOPC      H11S          -34.6808728603       29.7894955387       -8.0060676462  MEMB      131             0.0000000000
     18510       159  DOPC      C212          -36.2368241157       28.2491165750       -7.9573533891  MEMB      131             0.0000000000
     18511       159  DOPC      H12R          -35.6910616836       27.3337386676       -8.2712768617  MEMB      131             0.0000000000
     18512       159  DOPC      H12S          -37.2939433291       28.0570701140       -8.2400868967  MEMB      131             0.0000000000
     18513       159  DOPC      C213          -36.3431136504       28.3055513403       -6.3815788315  MEMB      131             0.0000000000
     18514       159  DOPC      H13R          -36.5262817695       29.3242121598       -5.9777210230  MEMB      131             0.0000000000
     18515       159  DOPC      H13S          -35.3757354998       27.9814754347       -5.9417205041  MEMB      131             0.0000000000
     18516       159  DOPC      C214          -37.2377291308       27.1619111967       -5.8301964559  MEMB      131             0.0000000000
     18517       159  DOPC      H14R          -37.0117747963       26.2878102617       -6.4776629704  MEMB      131             0.0000000000
     18518       159  DOPC      H14S          -38.2789925399       27.5264946156       -5.9612330840  MEMB      131             0.0000000000
     18519       159  DOPC      C215          -37.0032831781       26.7798382288       -4.3130649727  MEMB      131             0.0000000000
     18520       159  DOPC      H15R          -35.9431545745       26.4651597631       -4.2061728739  MEMB      131             0.0000000000
     18521       159  DOPC      H15S          -37.5273625890       25.8630500296       -3.9678673780  MEMB      131             0.0000000000
     18522       159  DOPC      C216          -37.2625531650       27.9391663339       -3.3709740187  MEMB      131             0.0000000000
     18523       159  DOPC      H16R          -38.2309987495       28.3998310542       -3.6611840231  MEMB      131             0.0000000000
     18524       159  DOPC      H16S          -36.4678123356       28.6899233753       -3.5686402596  MEMB      131             0.0000000000
     18525       159  DOPC      C217          -37.2774577431       27.5622742985       -1.8701113229  MEMB      131             0.0000000000
     18526       159  DOPC      H17R          -38.2560122035       27.0536888834       -1.7356020556  MEMB      131             0.0000000000
     18527       159  DOPC      H17S          -37.4148220665       28.4686306978       -1.2424424624  MEMB      131             0.0000000000
     18528       159  DOPC      C218          -36.0627821099       26.6931766371       -1.4803442168  MEMB      131             0.0000000000
     18529       159  DOPC      H18R          -36.0268758597       25.8134851745       -2.1579679574  MEMB      131             0.0000000000
     18530       159  DOPC      H18S          -36.1711414947       26.4270550768       -0.4071434497  MEMB      131             0.0000000000
     18531       159  DOPC      H18T          -35.1503026060       27.2911888658       -1.6903054040  MEMB      131             0.0000000000
     18532       159  DOPC      C33           -37.1983531963       28.4517847820      -13.9408454126  MEMB      131             0.0000000000
     18533       159  DOPC      H3X           -38.0270749401       28.9368024843      -14.4996829476  MEMB      131             0.0000000000
     18534       159  DOPC      H3Y           -37.0604972569       28.9720173331      -12.9689018055  MEMB      131             0.0000000000
     18535       159  DOPC      C34           -37.6722125085       27.0263354474      -13.6653369718  MEMB      131             0.0000000000
     18536       159  DOPC      H4X           -37.4584651913       26.4446692824      -14.5874527541  MEMB      131             0.0000000000
     18537       159  DOPC      H4Y           -38.7775425603       26.9985417916      -13.5567360636  MEMB      131             0.0000000000
     18538       159  DOPC      C35           -36.9086185705       26.4908605789      -12.3786052063  MEMB      131             0.0000000000
     18539       159  DOPC      H5X           -37.1692136997       27.1304995733      -11.5083911780  MEMB      131             0.0000000000
     18540       159  DOPC      H5Y           -35.8320048947       26.7590237647      -12.4361587896  MEMB      131             0.0000000000
     18541       159  DOPC      C36           -36.9584016135       25.0109171739      -12.1154405904  MEMB      131             0.0000000000
     18542       159  DOPC      H6X           -37.9721095372       24.6048514519      -11.9109223170  MEMB      131             0.0000000000
     18543       159  DOPC      H6Y           -36.7045026903       24.5414469439      -13.0898398931  MEMB      131             0.0000000000
     18544       159  DOPC      C37           -35.8626197822       24.4238351590      -11.2190630456  MEMB      131             0.0000000000
     18545       159  DOPC      H7X           -36.0195082343       23.3243787135      -11.1890232651  MEMB      131             0.0000000000
     18546       159  DOPC      H7Y           -34.8358933132       24.3795194698      -11.6411887801  MEMB      131             0.0000000000
     18547       159  DOPC      C38           -35.9093810038       25.1126616791       -9.7434232723  MEMB      131             0.0000000000
     18548       159  DOPC      H8X           -36.8208053111       25.7242743631       -9.5715034300  MEMB      131             0.0000000000
     18549       159  DOPC      H8Y           -35.1920588789       25.9607836709       -9.7219882899  MEMB      131             0.0000000000
     18550       159  DOPC      C39           -35.7263263135       24.0864183320       -8.7102622502  MEMB      131             0.0000000000
     18551       159  DOPC      H9X           -36.5599490930       23.4462457132       -8.3858367583  MEMB      131             0.0000000000
     18552       159  DOPC      C310          -34.5708820705       23.6999365414       -8.1762887718  MEMB      131             0.0000000000
     18553       159  DOPC      H10X          -34.5256333783       22.7261281549       -7.6667305762  MEMB      131             0.0000000000
     18554       159  DOPC      C311          -33.1519043036       24.2437893599       -8.4696240716  MEMB      131             0.0000000000
     18555       159  DOPC      H11X          -32.8327701684       24.2973504790       -9.5324537894  MEMB      131             0.0000000000
     18556       159  DOPC      H11Y          -32.4986544664       23.5179916180       -7.9397153232  MEMB      131             0.0000000000
     18557       159  DOPC      C312          -33.0118397772       25.5585758481       -7.6752986262  MEMB      131             0.0000000000
     18558       159  DOPC      H12X          -33.5558015379       26.4169806331       -8.1242620941  MEMB      131             0.0000000000
     18559       159  DOPC      H12Y          -31.9731839374       25.9516128607       -7.6430958676  MEMB      131             0.0000000000
     18560       159  DOPC      C313          -33.3507921028       25.5308475900       -6.1642525779  MEMB      131             0.0000000000
     18561       159  DOPC      H13X          -34.4466201672       25.6911693873       -6.2524503038  MEMB      131             0.0000000000
     18562       159  DOPC      H13Y          -33.0540032629       24.5690045854       -5.6940451795  MEMB      131             0.0000000000
     18563       159  DOPC      C314          -32.5357311773       26.6437154306       -5.3130941757  MEMB      131             0.0000000000
     18564       159  DOPC      H14X          -31.5144461285       26.7350456103       -5.7408277856  MEMB      131             0.0000000000
     18565       159  DOPC      H14Y          -32.9900350316       27.6515265943       -5.4237534697  MEMB      131             0.0000000000
     18566       159  DOPC      C315          -32.0594354405       26.3256567470       -3.8511519442  MEMB      131             0.0000000000
     18567       159  DOPC      H15X          -31.2951411780       25.5248266893       -3.9452077053  MEMB      131             0.0000000000
     18568       159  DOPC      H15Y          -32.8442808997       25.8881168591       -3.1977778814  MEMB      131             0.0000000000
     18569       159  DOPC      C316          -31.3766849609       27.5435410660       -3.0633796951  MEMB      131             0.0000000000
     18570       159  DOPC      H16X          -30.4079642388       27.8807701245       -3.4902024844  MEMB      131             0.0000000000
     18571       159  DOPC      H16Y          -32.0464723950       28.4287793839       -3.1087548099  MEMB      131             0.0000000000
     18572       159  DOPC      C317          -31.2059877455       27.3662391800       -1.5510730272  MEMB      131             0.0000000000
     18573       159  DOPC      H17X          -31.0585353750       28.3591091139       -1.0748503550  MEMB      131             0.0000000000
     18574       159  DOPC      H17Y          -32.1266828988       26.9420633810       -1.0964136833  MEMB      131             0.0000000000
     18575       159  DOPC      C318          -30.1085071888       26.4738563975       -1.0638166244  MEMB      131             0.0000000000
     18576       159  DOPC      H18X          -29.9796727428       26.4437428249        0.0392770946  MEMB      131             0.0000000000
     18577       159  DOPC      H18Y          -30.3469756031       25.4444426736       -1.4069805066  MEMB      131             0.0000000000
     18578       159  DOPC      H18Z          -29.1748521433       26.9510732975       -1.4310679659  MEMB      131             0.0000000000
     18579       160  DOPC      N             -31.8270093793      -32.0990307696      -19.3997030990  MEMB      132             0.0000000000
     18580       160  DOPC      C12           -33.1928284138      -32.7201054468      -19.2553398933  MEMB      132             0.0000000000
     18581       160  DOPC      H12A          -33.8602281671      -32.0571679541      -19.7858974036  MEMB      132             0.0000000000
     18582       160  DOPC      H12B          -33.4826217698      -32.6813492941      -18.2156679049  MEMB      132             0.0000000000
     18583       160  DOPC      C13           -31.9196480187      -30.6799317142      -18.9280241755  MEMB      132             0.0000000000
     18584       160  DOPC      H13A          -30.9456997508      -30.2331119310      -18.7932020685  MEMB      132             0.0000000000
     18585       160  DOPC      H13B          -32.1413846594      -30.1040954578      -19.8143906121  MEMB      132             0.0000000000
     18586       160  DOPC      H13C          -32.5256014446      -30.5058268349      -18.0511502059  MEMB      132             0.0000000000
     18587       160  DOPC      C14           -31.4261956991      -32.2261562054      -20.8865897315  MEMB      132             0.0000000000
     18588       160  DOPC      H14A          -32.0714715801      -31.5858429019      -21.4697003333  MEMB      132             0.0000000000
     18589       160  DOPC      H14B          -30.4162927344      -31.8452851830      -20.9244527806  MEMB      132             0.0000000000
     18590       160  DOPC      H14C          -31.3945309921      -33.2691458284      -21.1651030734  MEMB      132             0.0000000000
     18591       160  DOPC      C15           -30.8241099961      -32.7534795604      -18.5116733557  MEMB      132             0.0000000000
     18592       160  DOPC      H15A          -30.8428187509      -32.4616939536      -17.4720045834  MEMB      132             0.0000000000
     18593       160  DOPC      H15B          -29.8503264394      -32.3603191521      -18.7638048297  MEMB      132             0.0000000000
     18594       160  DOPC      H15C          -30.7882638850      -33.8129215962      -18.7183074897  MEMB      132             0.0000000000
     18595       160  DOPC      C11           -33.4258328577      -34.1884216630      -19.7579077431  MEMB      132             0.0000000000
     18596       160  DOPC      H11A          -34.5217768486      -34.3503313625      -19.6741642562  MEMB      132             0.0000000000
     18597       160  DOPC      H11B          -33.1996636549      -34.3904851593      -20.8267102477  MEMB      132             0.0000000000
     18598       160  DOPC      P             -33.3357978352      -36.4963249262      -18.5052021504  MEMB      132             0.0000000000
     18599       160  DOPC      O13           -32.2266419496      -37.3687877039      -17.9798488065  MEMB      132             0.0000000000
     18600       160  DOPC      O14           -34.2140090923      -36.9621934394      -19.6144985918  MEMB      132             0.0000000000
     18601       160  DOPC      O12           -32.5999829897      -35.0897832002      -18.9802297146  MEMB      132             0.0000000000
     18602       160  DOPC      O11           -34.2148658456      -36.0952474701      -17.1809827358  MEMB      132             0.0000000000
     18603       160  DOPC      C1            -35.4419991284      -35.3778104225      -17.1328443400  MEMB      132             0.0000000000
     18604       160  DOPC      HA            -36.1146406034      -35.9009571612      -16.4199684134  MEMB      132             0.0000000000
     18605       160  DOPC      HB            -35.8520963553      -35.4954343392      -18.1586639513  MEMB      132             0.0000000000
     18606       160  DOPC      C2            -35.3595505975      -33.9220306010      -16.7754353215  MEMB      132             0.0000000000
     18607       160  DOPC      HS            -35.0175228594      -33.3721731888      -17.6782059367  MEMB      132             0.0000000000
     18608       160  DOPC      O21           -34.5820205792      -33.7195091420      -15.5618349042  MEMB      132             0.0000000000
     18609       160  DOPC      C21           -33.9247566142      -32.5752284961      -15.5630272657  MEMB      132             0.0000000000
     18610       160  DOPC      O22           -33.8684441302      -31.7614252570      -16.4593353130  MEMB      132             0.0000000000
     18611       160  DOPC      C22           -33.1147770381      -32.3354895694      -14.2600191857  MEMB      132             0.0000000000
     18612       160  DOPC      H2R           -32.4767326134      -33.2416251845      -14.1816708172  MEMB      132             0.0000000000
     18613       160  DOPC      H2S           -33.7215343739      -32.2541024631      -13.3329034417  MEMB      132             0.0000000000
     18614       160  DOPC      C3            -36.8013538847      -33.3939310040      -16.5714871875  MEMB      132             0.0000000000
     18615       160  DOPC      HX            -37.3848186380      -33.6691467688      -17.4760014450  MEMB      132             0.0000000000
     18616       160  DOPC      HY            -36.7760844435      -32.2832730220      -16.5604518772  MEMB      132             0.0000000000
     18617       160  DOPC      O31           -37.4172259315      -33.9360644887      -15.4080354017  MEMB      132             0.0000000000
     18618       160  DOPC      C31           -37.3213713860      -33.2075200193      -14.3075963373  MEMB      132             0.0000000000
     18619       160  DOPC      O32           -36.7202528736      -32.1426272170      -14.2395899702  MEMB      132             0.0000000000
     18620       160  DOPC      C32           -38.1714282392      -33.7448218714      -13.1694551533  MEMB      132             0.0000000000
     18621       160  DOPC      H2X           -39.1618959229      -33.2421021667      -13.1932912749  MEMB      132             0.0000000000
     18622       160  DOPC      H2Y           -38.3642699342      -34.8117380187      -13.4119890221  MEMB      132             0.0000000000
     18623       160  DOPC      C23           -32.1319244873      -31.1129150213      -14.4184688529  MEMB      132             0.0000000000
     18624       160  DOPC      H3R           -32.7105655319      -30.1970528803      -14.1721106733  MEMB      132             0.0000000000
     18625       160  DOPC      H3S           -31.6488821801      -31.0602493288      -15.4175770853  MEMB      132             0.0000000000
     18626       160  DOPC      C24           -31.0237396396      -31.1386836930      -13.3168687091  MEMB      132             0.0000000000
     18627       160  DOPC      H4R           -30.5033705378      -30.1579135665      -13.3572063262  MEMB      132             0.0000000000
     18628       160  DOPC      H4S           -30.2820351934      -31.7894779714      -13.8274195121  MEMB      132             0.0000000000
     18629       160  DOPC      C25           -31.2506850559      -31.6502381289      -11.9050250521  MEMB      132             0.0000000000
     18630       160  DOPC      H5R           -30.3493242207      -31.8559556092      -11.2889488379  MEMB      132             0.0000000000
     18631       160  DOPC      H5S           -31.7062826672      -32.6549732590      -12.0363989035  MEMB      132             0.0000000000
     18632       160  DOPC      C26           -32.2347554609      -30.8043702252      -10.9221548481  MEMB      132             0.0000000000
     18633       160  DOPC      H6R           -33.2090549887      -30.8702487699      -11.4519865830  MEMB      132             0.0000000000
     18634       160  DOPC      H6S           -31.9142233793      -29.7412582264      -10.9592117251  MEMB      132             0.0000000000
     18635       160  DOPC      C27           -32.1683052943      -31.4200782605       -9.5774030636  MEMB      132             0.0000000000
     18636       160  DOPC      H7R           -32.5772925809      -30.6539404947       -8.8845232380  MEMB      132             0.0000000000
     18637       160  DOPC      H7S           -31.0885160917      -31.4181512354       -9.3159211303  MEMB      132             0.0000000000
     18638       160  DOPC      C28           -32.8407420703      -32.7630902267       -9.4349701718  MEMB      132             0.0000000000
     18639       160  DOPC      H8R           -32.5124206183      -33.3533981784      -10.3170484346  MEMB      132             0.0000000000
     18640       160  DOPC      H8S           -33.9480015547      -32.7244078530       -9.5174412027  MEMB      132             0.0000000000
     18641       160  DOPC      C29           -32.3672693213      -33.4337401697       -8.1215854150  MEMB      132             0.0000000000
     18642       160  DOPC      H9R           -31.4719270903      -34.0717006431       -8.1585796351  MEMB      132             0.0000000000
     18643       160  DOPC      C210          -33.0433035814      -33.3514553175       -6.9067898849  MEMB      132             0.0000000000
     18644       160  DOPC      H10R          -32.6715425863      -33.9276498511       -6.0466779315  MEMB      132             0.0000000000
     18645       160  DOPC      C211          -34.2910419239      -32.6113193891       -6.6994252567  MEMB      132             0.0000000000
     18646       160  DOPC      H11R          -35.2007674065      -33.2427458299       -6.6098642833  MEMB      132             0.0000000000
     18647       160  DOPC      H11S          -34.4161782892      -32.0088892517       -7.6244879903  MEMB      132             0.0000000000
     18648       160  DOPC      C212          -34.2305163741      -31.6384996736       -5.5067519958  MEMB      132             0.0000000000
     18649       160  DOPC      H12R          -35.0413102973      -30.8905575712       -5.6391030218  MEMB      132             0.0000000000
     18650       160  DOPC      H12S          -33.2633043866      -31.1283751732       -5.3102967601  MEMB      132             0.0000000000
     18651       160  DOPC      C213          -34.6672682613      -32.3628671369       -4.2026928311  MEMB      132             0.0000000000
     18652       160  DOPC      H13R          -33.9039211206      -33.1538947114       -4.0417661085  MEMB      132             0.0000000000
     18653       160  DOPC      H13S          -35.6748238441      -32.8306930657       -4.2197698747  MEMB      132             0.0000000000
     18654       160  DOPC      C214          -34.5785543398      -31.4144678575       -2.9583887098  MEMB      132             0.0000000000
     18655       160  DOPC      H14R          -35.5527127601      -30.8972570674       -2.8248609921  MEMB      132             0.0000000000
     18656       160  DOPC      H14S          -33.8565158700      -30.5773287999       -3.0687482560  MEMB      132             0.0000000000
     18657       160  DOPC      C215          -34.2671932213      -32.1792098254       -1.6714082747  MEMB      132             0.0000000000
     18658       160  DOPC      H15R          -33.1928138695      -32.4278478940       -1.5364671242  MEMB      132             0.0000000000
     18659       160  DOPC      H15S          -34.8067647363      -33.1502751306       -1.6860872820  MEMB      132             0.0000000000
     18660       160  DOPC      C216          -34.8260409520      -31.4857188964       -0.4283917414  MEMB      132             0.0000000000
     18661       160  DOPC      H16R          -35.9191477385      -31.3264581848       -0.5470267441  MEMB      132             0.0000000000
     18662       160  DOPC      H16S          -34.2654786764      -30.5265130536       -0.4244975135  MEMB      132             0.0000000000
     18663       160  DOPC      C217          -34.5810515070      -32.1007375001        0.9624557901  MEMB      132             0.0000000000
     18664       160  DOPC      H17R          -34.9138365865      -31.3089678352        1.6672089636  MEMB      132             0.0000000000
     18665       160  DOPC      H17S          -33.5607388073      -32.4142728060        1.2706428420  MEMB      132             0.0000000000
     18666       160  DOPC      C218          -35.3221716463      -33.4047631397        1.0277831920  MEMB      132             0.0000000000
     18667       160  DOPC      H18R          -36.3525769586      -33.4354568390        0.6134835912  MEMB      132             0.0000000000
     18668       160  DOPC      H18S          -35.4833756455      -33.7538244087        2.0701323848  MEMB      132             0.0000000000
     18669       160  DOPC      H18T          -34.8096373956      -34.1627900351        0.3976849642  MEMB      132             0.0000000000
     18670       160  DOPC      C33           -37.4870446966      -33.7456120848      -11.8598328565  MEMB      132             0.0000000000
     18671       160  DOPC      H3X           -38.2084993138      -34.2262725362      -11.1650024102  MEMB      132             0.0000000000
     18672       160  DOPC      H3Y           -37.3457865522      -32.6948566220      -11.5277481157  MEMB      132             0.0000000000
     18673       160  DOPC      C34           -36.3802975252      -34.8257706449      -11.8019985058  MEMB      132             0.0000000000
     18674       160  DOPC      H4X           -35.5445202780      -34.5237228128      -12.4687550275  MEMB      132             0.0000000000
     18675       160  DOPC      H4Y           -36.8673949019      -35.7465346157      -12.1883285313  MEMB      132             0.0000000000
     18676       160  DOPC      C35           -35.7332026707      -34.9775121191      -10.4301623621  MEMB      132             0.0000000000
     18677       160  DOPC      H5X           -35.2867887828      -34.0165177046      -10.0962082951  MEMB      132             0.0000000000
     18678       160  DOPC      H5Y           -34.9274275547      -35.7104565608      -10.6488856114  MEMB      132             0.0000000000
     18679       160  DOPC      C36           -36.5948448997      -35.6417164569       -9.3669866694  MEMB      132             0.0000000000
     18680       160  DOPC      H6X           -35.9277939552      -35.6551974983       -8.4786273001  MEMB      132             0.0000000000
     18681       160  DOPC      H6Y           -37.5215966417      -35.0718773527       -9.1417417283  MEMB      132             0.0000000000
     18682       160  DOPC      C37           -36.9642032034      -37.0871213858       -9.6849485714  MEMB      132             0.0000000000
     18683       160  DOPC      H7X           -37.9570645328      -37.2165749051      -10.1663936943  MEMB      132             0.0000000000
     18684       160  DOPC      H7Y           -36.2375970056      -37.4987486799      -10.4177026774  MEMB      132             0.0000000000
     18685       160  DOPC      C38           -36.9800413134      -37.9549118907       -8.4033659312  MEMB      132             0.0000000000
     18686       160  DOPC      H8X           -35.9783324653      -38.3429480545       -8.1199435337  MEMB      132             0.0000000000
     18687       160  DOPC      H8Y           -37.5633023339      -38.8554302719       -8.6917998484  MEMB      132             0.0000000000
     18688       160  DOPC      C39           -37.7566755446      -37.5097482556       -7.1910842996  MEMB      132             0.0000000000
     18689       160  DOPC      H9X           -38.8244331990      -37.7564802275       -7.2860405521  MEMB      132             0.0000000000
     18690       160  DOPC      C310          -37.2632098341      -36.9026477373       -6.0958721384  MEMB      132             0.0000000000
     18691       160  DOPC      H10X          -37.9943047253      -36.5609779729       -5.3483687748  MEMB      132             0.0000000000
     18692       160  DOPC      C311          -35.8405284502      -36.5614359522       -5.9216337932  MEMB      132             0.0000000000
     18693       160  DOPC      H11X          -35.7555272351      -35.5480285415       -5.4743071278  MEMB      132             0.0000000000
     18694       160  DOPC      H11Y          -35.3721050568      -36.6703365832       -6.9231528563  MEMB      132             0.0000000000
     18695       160  DOPC      C312          -35.1684801867      -37.4336654842       -4.8374771200  MEMB      132             0.0000000000
     18696       160  DOPC      H12X          -34.0735408728      -37.3295565273       -4.9942905384  MEMB      132             0.0000000000
     18697       160  DOPC      H12Y          -35.3842386107      -38.5171948703       -4.9546655029  MEMB      132             0.0000000000
     18698       160  DOPC      C313          -35.3274086982      -37.0152094335       -3.3360688498  MEMB      132             0.0000000000
     18699       160  DOPC      H13X          -34.8581761930      -37.8520448384       -2.7758472945  MEMB      132             0.0000000000
     18700       160  DOPC      H13Y          -34.6788793835      -36.1348911345       -3.1391667425  MEMB      132             0.0000000000
     18701       160  DOPC      C314          -36.6908878849      -36.7821952344       -2.8181245310  MEMB      132             0.0000000000
     18702       160  DOPC      H14X          -37.2045969511      -35.9923176714       -3.4067819466  MEMB      132             0.0000000000
     18703       160  DOPC      H14Y          -37.1721568849      -37.7789792494       -2.9136377892  MEMB      132             0.0000000000
     18704       160  DOPC      C315          -36.7139914752      -36.2136251317       -1.3777792089  MEMB      132             0.0000000000
     18705       160  DOPC      H15X          -37.7069681372      -35.8050791523       -1.0924572095  MEMB      132             0.0000000000
     18706       160  DOPC      H15Y          -35.9081172238      -35.4496323228       -1.4124583900  MEMB      132             0.0000000000
     18707       160  DOPC      C316          -36.5037862050      -37.4103896538       -0.4325962438  MEMB      132             0.0000000000
     18708       160  DOPC      H16X          -35.6713483543      -37.9806063946       -0.8975934717  MEMB      132             0.0000000000
     18709       160  DOPC      H16Y          -36.2876144163      -36.9201565585        0.5406772104  MEMB      132             0.0000000000
     18710       160  DOPC      C317          -37.7144336799      -38.3456847589       -0.1921042541  MEMB      132             0.0000000000
     18711       160  DOPC      H17X          -38.5833535617      -37.7886060721        0.2189464314  MEMB      132             0.0000000000
     18712       160  DOPC      H17Y          -38.0560260633      -38.8435666330       -1.1247088163  MEMB      132             0.0000000000
     18713       160  DOPC      C318          -37.2734936244      -39.4925001518        0.7570645052  MEMB      132             0.0000000000
     18714       160  DOPC      H18X          -36.5642378225      -40.1936319137        0.2674819913  MEMB      132             0.0000000000
     18715       160  DOPC      H18Y          -36.7735875831      -38.9680763129        1.5993198043  MEMB      132             0.0000000000
     18716       160  DOPC      H18Z          -38.1991262181      -39.9605032053        1.1551818836  MEMB      132             0.0000000000
