* EQUILIBRATED WATER
*  DATE:     7/ 7/26      9:11:45      CREATED BY USER: charmm-gui
*
      1050  EXT
         1         1  TIP3      OH2             3.2443354930        1.1269630423      -11.1497236432  W1        1               0.0000000000
         2         1  TIP3      H1              3.3334454930        2.0707830423      -11.2820136432  W1        1               0.0000000000
         3         1  TIP3      H2              2.6060954930        0.8516030423      -11.8077836432  W1        1               0.0000000000
         4         2  TIP3      OH2             2.1774654930        0.3820330423       -7.7309036432  W1        2               0.0000000000
         5         2  TIP3      H1              2.1392154930       -0.2643369577       -7.0259436432  W1        2               0.0000000000
         6         2  TIP3      H2              1.8551154930       -0.0845269577       -8.5020336432  W1        2               0.0000000000
         7         3  TIP3      OH2            -5.4540345070       -0.0037569577       -6.1379136432  W1        3               0.0000000000
         8         3  TIP3      H1             -5.4128245070       -0.6294269577       -5.4146736432  W1        3               0.0000000000
         9         3  TIP3      H2             -4.7512645070        0.6201030423       -5.9558736432  W1        3               0.0000000000
        10         4  TIP3      OH2             5.8834854930        3.3210730423       -9.4293936432  W1        4               0.0000000000
        11         4  TIP3      H1              5.4427554930        2.6006730423       -8.9788336432  W1        4               0.0000000000
        12         4  TIP3      H2              5.8704554930        4.0417930423       -8.7996236432  W1        4               0.0000000000
        13         5  TIP3      OH2            -4.5307245070        4.4461330423       -7.6030036432  W1        5               0.0000000000
        14         5  TIP3      H1             -4.9002045070        3.6441830423       -7.9725736432  W1        5               0.0000000000
        15         5  TIP3      H2             -3.5896145070        4.2776230423       -7.5566636432  W1        5               0.0000000000
        16         6  TIP3      OH2            -7.9206745070       -1.8936069577      -12.2101236432  W1        6               0.0000000000
        17         6  TIP3      H1             -8.3683345070       -1.0477369577      -12.2284736432  W1        6               0.0000000000
        18         6  TIP3      H2             -8.4815545070       -2.4731869577      -12.7256136432  W1        6               0.0000000000
        19         7  TIP3      OH2            -7.2100645070        0.2683530423      -10.0843236432  W1        7               0.0000000000
        20         7  TIP3      H1             -6.9967145070       -0.5014869577       -9.5570236432  W1        7               0.0000000000
        21         7  TIP3      H2             -6.4723045070        0.3580230423      -10.6875636432  W1        7               0.0000000000
        22         8  TIP3      OH2             2.9950354930        8.4252430423       -9.2173536432  W1        8               0.0000000000
        23         8  TIP3      H1              3.6146754930        7.7487130423       -9.4904336432  W1        8               0.0000000000
        24         8  TIP3      H2              2.7867754930        8.2073230423       -8.3088636432  W1        8               0.0000000000
        25         9  TIP3      OH2             0.5669054930        2.8141730423       -7.3248036432  W1        9               0.0000000000
        26         9  TIP3      H1              0.8706954930        2.1283130423       -7.9193936432  W1        9               0.0000000000
        27         9  TIP3      H2              1.2883054930        2.9330430423       -6.7070036432  W1        9               0.0000000000
        28        10  TIP3      OH2             3.7076054930       -2.7915869577       -6.9973236432  W1        10              0.0000000000
        29        10  TIP3      H1              3.8501954930       -3.7378869577       -6.9771636432  W1        10              0.0000000000
        30        10  TIP3      H2              3.6015054930       -2.5846069577       -7.9258336432  W1        10              0.0000000000
        31        11  TIP3      OH2            -3.1375645070       -4.6899469577       -9.7248436432  W1        11              0.0000000000
        32        11  TIP3      H1             -3.0944545070       -3.8300969577      -10.1432136432  W1        11              0.0000000000
        33        11  TIP3      H2             -3.5951545070       -5.2424769577      -10.3585236432  W1        11              0.0000000000
        34        12  TIP3      OH2             4.5847054930       -4.5593869577      -11.3240136432  W1        12              0.0000000000
        35        12  TIP3      H1              5.2311354930       -4.8880669577      -10.6992536432  W1        12              0.0000000000
        36        12  TIP3      H2              5.0946454930       -4.0414869577      -11.9468736432  W1        12              0.0000000000
        37        13  TIP3      OH2            -6.5174145070       -2.2933669577       -8.9627036432  W1        13              0.0000000000
        38        13  TIP3      H1             -5.8637545070       -2.8431969577       -8.5306936432  W1        13              0.0000000000
        39        13  TIP3      H2             -6.4934845070       -2.5674669577       -9.8795036432  W1        13              0.0000000000
        40        14  TIP3      OH2            -1.3609645070       -0.7432369577       -9.7475536432  W1        14              0.0000000000
        41        14  TIP3      H1             -0.7448645070       -1.2696969577       -9.2381536432  W1        14              0.0000000000
        42        14  TIP3      H2             -1.9470845070       -1.3833669577      -10.1511936432  W1        14              0.0000000000
        43        15  TIP3      OH2            -4.3273745070       -5.7721069577       -5.6507636432  W1        15              0.0000000000
        44        15  TIP3      H1             -4.5462045070       -5.2420469577       -6.4171636432  W1        15              0.0000000000
        45        15  TIP3      H2             -4.9952845070       -5.5455569577       -5.0036236432  W1        15              0.0000000000
        46        16  TIP3      OH2             3.0416054930        3.7280030423      -12.1068536432  W1        16              0.0000000000
        47        16  TIP3      H1              2.7461154930        3.4052330423      -12.9581636432  W1        16              0.0000000000
        48        16  TIP3      H2              2.7173854930        4.6276730423      -12.0655936432  W1        16              0.0000000000
        49        17  TIP3      OH2            -1.7582345070        1.9034630423       -5.3633936432  W1        17              0.0000000000
        50        17  TIP3      H1             -2.4983245070        2.5016130423       -5.2598736432  W1        17              0.0000000000
        51        17  TIP3      H2             -1.0442845070        2.4574230423       -5.6790336432  W1        17              0.0000000000
        52        18  TIP3      OH2             6.3485454930       -5.2684569577       -9.3434236432  W1        18              0.0000000000
        53        18  TIP3      H1              6.1333454930       -6.0341169577       -8.8108236432  W1        18              0.0000000000
        54        18  TIP3      H2              7.0042854930       -4.7959969577       -8.8305736432  W1        18              0.0000000000
        55        19  TIP3      OH2            -4.7336445070       -3.8799269577       -7.6985436432  W1        19              0.0000000000
        56        19  TIP3      H1             -4.1200145070       -3.2471669577       -7.3253036432  W1        19              0.0000000000
        57        19  TIP3      H2             -4.2215745070       -4.3524269577       -8.3548536432  W1        19              0.0000000000
        58        20  TIP3      OH2            -3.3508045070        3.8677630423       -4.5762436432  W1        20              0.0000000000
        59        20  TIP3      H1             -3.3560445070        4.7471130423       -4.9543136432  W1        20              0.0000000000
        60        20  TIP3      H2             -4.2043945070        3.7841730423       -4.1512536432  W1        20              0.0000000000
        61        21  TIP3      OH2            -7.2297145070        3.5385530423      -13.7943136432  W1        21              0.0000000000
        62        21  TIP3      H1             -7.5016245070        3.7676530423      -14.6830236432  W1        21              0.0000000000
        63        21  TIP3      H2             -7.1841445070        4.3764330423      -13.3337836432  W1        21              0.0000000000
        64        22  TIP3      OH2             6.3952554930        5.1601430423       -7.0814636432  W1        22              0.0000000000
        65        22  TIP3      H1              5.4536254930        5.2185330423       -6.9197736432  W1        22              0.0000000000
        66        22  TIP3      H2              6.6718654930        6.0661930423       -7.2184936432  W1        22              0.0000000000
        67        23  TIP3      OH2             6.6959554930       -6.5533269577       -5.6640736432  W1        23              0.0000000000
        68        23  TIP3      H1              5.9598754930       -5.9426169577       -5.7019436432  W1        23              0.0000000000
        69        23  TIP3      H2              7.3793554930       -6.1384269577       -6.1904336432  W1        23              0.0000000000
        70        24  TIP3      OH2            -0.3009045070       -8.4665969577       -8.1982736432  W1        24              0.0000000000
        71        24  TIP3      H1             -0.4184845070       -9.4149969577       -8.2524436432  W1        24              0.0000000000
        72        24  TIP3      H2             -1.1558945070       -8.1339869577       -7.9251636432  W1        24              0.0000000000
        73        25  TIP3      OH2             4.6473754930        6.9414930423      -10.4563036432  W1        25              0.0000000000
        74        25  TIP3      H1              5.0726054930        6.2342830423      -10.9413436432  W1        25              0.0000000000
        75        25  TIP3      H2              4.9643754930        7.7427630423      -10.8730836432  W1        25              0.0000000000
        76        26  TIP3      OH2             5.8070254930        4.8423430423      -11.9476436432  W1        26              0.0000000000
        77        26  TIP3      H1              5.5495054930        4.1523530423      -12.5590536432  W1        26              0.0000000000
        78        26  TIP3      H2              5.8781054930        4.3994630423      -11.1020536432  W1        26              0.0000000000
        79        27  TIP3      OH2             7.4930454930        3.4090130423       -3.4702936432  W1        27              0.0000000000
        80        27  TIP3      H1              7.6326754930        2.8172630423       -4.2095936432  W1        27              0.0000000000
        81        27  TIP3      H2              7.6603254930        4.2816030423       -3.8264136432  W1        27              0.0000000000
        82        28  TIP3      OH2             1.9655854930        0.3709630423      -13.6976936432  W1        28              0.0000000000
        83        28  TIP3      H1              1.2541354930        0.9059330423      -14.0496436432  W1        28              0.0000000000
        84        28  TIP3      H2              2.6565454930        0.4261730423      -14.3578036432  W1        28              0.0000000000
        85        29  TIP3      OH2             2.0195054930       -1.1716069577      -16.6591936432  W1        29              0.0000000000
        86        29  TIP3      H1              2.7204954930       -1.1489169577      -16.0077936432  W1        29              0.0000000000
        87        29  TIP3      H2              2.3217954930       -1.7996369577      -17.3152636432  W1        29              0.0000000000
        88        30  TIP3      OH2             5.3713554930        0.5802930423      -12.7461036432  W1        30              0.0000000000
        89        30  TIP3      H1              4.6394554930        0.8086630423      -12.1730436432  W1        30              0.0000000000
        90        30  TIP3      H2              5.8185754930       -0.1334369577      -12.2913536432  W1        30              0.0000000000
        91        31  TIP3      OH2             5.2687054930       -1.2454469577       -3.6784036432  W1        31              0.0000000000
        92        31  TIP3      H1              5.3486154930       -0.4820069577       -3.1065536432  W1        31              0.0000000000
        93        31  TIP3      H2              4.6674754930       -0.9662069577       -4.3688936432  W1        31              0.0000000000
        94        32  TIP3      OH2            -2.9832745070        1.2109130423      -10.8636036432  W1        32              0.0000000000
        95        32  TIP3      H1             -3.3137545070        0.8402530423      -11.6819036432  W1        32              0.0000000000
        96        32  TIP3      H2             -2.3948645070        0.5403130423      -10.5167736432  W1        32              0.0000000000
        97        33  TIP3      OH2            -1.6165245070        4.6389730423       -8.1823836432  W1        33              0.0000000000
        98        33  TIP3      H1             -1.7113945070        4.0602830423       -8.9389236432  W1        33              0.0000000000
        99        33  TIP3      H2             -0.8871645070        4.2675430423       -7.6861036432  W1        33              0.0000000000
       100        34  TIP3      OH2            -2.6167245070       -0.0205269577       -7.2301036432  W1        34              0.0000000000
       101        34  TIP3      H1             -2.0514745070        0.1008930423       -7.9929836432  W1        34              0.0000000000
       102        34  TIP3      H2             -2.2978345070        0.6169730423       -6.5912536432  W1        34              0.0000000000
       103        35  TIP3      OH2             3.6924954930        5.4826630423       -6.4960536432  W1        35              0.0000000000
       104        35  TIP3      H1              3.4521554930        6.1449730423       -5.8481336432  W1        35              0.0000000000
       105        35  TIP3      H2              3.4943154930        4.6481830423       -6.0710936432  W1        35              0.0000000000
       106        36  TIP3      OH2            -1.7366545070        4.3787430423       -2.5129136432  W1        36              0.0000000000
       107        36  TIP3      H1             -2.0479045070        5.1610630423       -2.0575936432  W1        36              0.0000000000
       108        36  TIP3      H2             -2.3866345070        4.2256530423       -3.1987136432  W1        36              0.0000000000
       109        37  TIP3      OH2             4.2423054930       -0.2574169577      -15.0609836432  W1        37              0.0000000000
       110        37  TIP3      H1              4.8218554930       -0.1073869577      -14.3140936432  W1        37              0.0000000000
       111        37  TIP3      H2              4.6563054930        0.2133230423      -15.7843436432  W1        37              0.0000000000
       112        38  TIP3      OH2            -4.8166645070        0.5768530423       -3.2843436432  W1        38              0.0000000000
       113        38  TIP3      H1             -4.7463445070        1.2275330423       -2.5858436432  W1        38              0.0000000000
       114        38  TIP3      H2             -5.7074445070        0.6796030423       -3.6192536432  W1        38              0.0000000000
       115        39  TIP3      OH2             1.9687954930        6.4794330423      -11.6256736432  W1        39              0.0000000000
       116        39  TIP3      H1              2.4425554930        6.7750630423      -10.8482536432  W1        39              0.0000000000
       117        39  TIP3      H2              1.4057254930        7.2175930423      -11.8587136432  W1        39              0.0000000000
       118        40  TIP3      OH2            -3.4970645070        6.4502430423       -1.7495336432  W1        40              0.0000000000
       119        40  TIP3      H1             -3.4895345070        6.3142130423       -2.6969836432  W1        40              0.0000000000
       120        40  TIP3      H2             -4.4130245070        6.3330530423       -1.4975336432  W1        40              0.0000000000
       121        41  TIP3      OH2             7.9411454930       -8.5073769577      -15.2480136432  W1        41              0.0000000000
       122        41  TIP3      H1              7.0412154930       -8.3684769577      -14.9529536432  W1        41              0.0000000000
       123        41  TIP3      H2              8.1929854930       -7.6759169577      -15.6498436432  W1        41              0.0000000000
       124        42  TIP3      OH2            -3.9930045070        0.2803430423      -13.2743236432  W1        42              0.0000000000
       125        42  TIP3      H1             -4.2848745070        1.0485130423      -13.7651936432  W1        42              0.0000000000
       126        42  TIP3      H2             -4.6674845070       -0.3790369577      -13.4371836432  W1        42              0.0000000000
       127        43  TIP3      OH2            -7.8999945070        2.6432630423       -4.4593436432  W1        43              0.0000000000
       128        43  TIP3      H1             -8.4011545070        2.6152030423       -5.2743736432  W1        43              0.0000000000
       129        43  TIP3      H2             -7.8946245070        1.7375830423       -4.1496136432  W1        43              0.0000000000
       130        44  TIP3      OH2            -8.1497245070        5.4236430423       -7.5753236432  W1        44              0.0000000000
       131        44  TIP3      H1             -7.2036645070        5.2793430423       -7.5943736432  W1        44              0.0000000000
       132        44  TIP3      H2             -8.2620945070        6.2079230423       -7.0382036432  W1        44              0.0000000000
       133        45  TIP3      OH2             1.0265254930        5.6635330423       -3.0168136432  W1        45              0.0000000000
       134        45  TIP3      H1              1.1139854930        6.4899930423       -2.5419036432  W1        45              0.0000000000
       135        45  TIP3      H2              0.1630354930        5.3339130423       -2.7678836432  W1        45              0.0000000000
       136        46  TIP3      OH2            -4.9055145070        8.2246030423      -11.4298536432  W1        46              0.0000000000
       137        46  TIP3      H1             -4.7534745070        7.8766430423      -10.5512036432  W1        46              0.0000000000
       138        46  TIP3      H2             -5.7564745070        7.8683330423      -11.6851336432  W1        46              0.0000000000
       139        47  TIP3      OH2             4.5427054930        8.5899230423      -16.2085136432  W1        47              0.0000000000
       140        47  TIP3      H1              4.9175454930        7.8455330423      -16.6792536432  W1        47              0.0000000000
       141        47  TIP3      H2              4.5470754930        8.3199830423      -15.2901836432  W1        47              0.0000000000
       142        48  TIP3      OH2             4.2115154930        8.5156330423      -13.4592936432  W1        48              0.0000000000
       143        48  TIP3      H1              3.2764954930        8.6158230423      -13.2805936432  W1        48              0.0000000000
       144        48  TIP3      H2              4.4917054930        7.8062330423      -12.8809736432  W1        48              0.0000000000
       145        49  TIP3      OH2             7.2001054930       -2.4171369577       -1.4127336432  W1        49              0.0000000000
       146        49  TIP3      H1              6.7927854930       -1.9365769577       -2.1334036432  W1        49              0.0000000000
       147        49  TIP3      H2              7.2406754930       -3.3225369577       -1.7206536432  W1        49              0.0000000000
       148        50  TIP3      OH2            -5.6509445070        3.9668030423       -3.4160636432  W1        50              0.0000000000
       149        50  TIP3      H1             -5.4348145070        3.6053630423       -2.5564836432  W1        50              0.0000000000
       150        50  TIP3      H2             -6.5064745070        3.5921830423       -3.6257136432  W1        50              0.0000000000
       151        51  TIP3      OH2            -3.0321445070       -7.5631469577       -7.4206436432  W1        51              0.0000000000
       152        51  TIP3      H1             -3.8937745070       -7.6503269577       -7.8283536432  W1        51              0.0000000000
       153        51  TIP3      H2             -3.0545745070       -6.7071369577       -6.9928836432  W1        51              0.0000000000
       154        52  TIP3      OH2             1.6306354930       -7.8411069577       -4.0459436432  W1        52              0.0000000000
       155        52  TIP3      H1              2.0509454930       -8.2563969577       -3.2928836432  W1        52              0.0000000000
       156        52  TIP3      H2              0.6975954930       -8.0197769577       -3.9287436432  W1        52              0.0000000000
       157        53  TIP3      OH2             4.9571254930       -4.0855869577       -3.1924936432  W1        53              0.0000000000
       158        53  TIP3      H1              4.4430754930       -4.2113669577       -2.3948936432  W1        53              0.0000000000
       159        53  TIP3      H2              4.8015954930       -3.1732769577       -3.4368736432  W1        53              0.0000000000
       160        54  TIP3      OH2             5.7196154930        0.7754130423      -17.4311936432  W1        54              0.0000000000
       161        54  TIP3      H1              5.7616954930        0.5528030423      -18.3611936432  W1        54              0.0000000000
       162        54  TIP3      H2              6.5688254930        1.1741230423      -17.2412036432  W1        54              0.0000000000
       163        55  TIP3      OH2             1.2923654930       -5.3487669577      -16.7608636432  W1        55              0.0000000000
       164        55  TIP3      H1              1.0388454930       -5.3296069577      -15.8380536432  W1        55              0.0000000000
       165        55  TIP3      H2              1.0355754930       -6.2202269577      -17.0622436432  W1        55              0.0000000000
       166        56  TIP3      OH2            -2.9411345070       -2.5976969577       -6.3256236432  W1        56              0.0000000000
       167        56  TIP3      H1             -3.5829245070       -2.6379669577       -5.6166136432  W1        56              0.0000000000
       168        56  TIP3      H2             -2.9039345070       -1.6712269577       -6.5633236432  W1        56              0.0000000000
       169        57  TIP3      OH2            -2.9442245070       -2.3766869577      -11.4136236432  W1        57              0.0000000000
       170        57  TIP3      H1             -3.8369345070       -2.7170769577      -11.4722436432  W1        57              0.0000000000
       171        57  TIP3      H2             -2.4935645070       -2.7535969577      -12.1693036432  W1        57              0.0000000000
       172        58  TIP3      OH2             2.5913254930       -1.9606569577      -12.5965436432  W1        58              0.0000000000
       173        58  TIP3      H1              2.1823554930       -1.1457969577      -12.8880636432  W1        58              0.0000000000
       174        58  TIP3      H2              3.3119454930       -2.1006469577      -13.2108336432  W1        58              0.0000000000
       175        59  TIP3      OH2             1.6934854930       -1.7850169577       -1.1084736432  W1        59              0.0000000000
       176        59  TIP3      H1              1.1308654930       -2.4898569577       -0.7876936432  W1        59              0.0000000000
       177        59  TIP3      H2              2.5198254930       -1.9058269577       -0.6407136432  W1        59              0.0000000000
       178        60  TIP3      OH2             3.5960954930       -2.5146169577       -9.7825736432  W1        60              0.0000000000
       179        60  TIP3      H1              3.4005454930       -1.9089369577      -10.4975136432  W1        60              0.0000000000
       180        60  TIP3      H2              3.7773554930       -3.3480969577      -10.2169436432  W1        60              0.0000000000
       181        61  TIP3      OH2            -5.1910845070       -2.2773469577       -4.4584236432  W1        61              0.0000000000
       182        61  TIP3      H1             -5.2291445070       -1.8771869577       -3.5897136432  W1        61              0.0000000000
       183        61  TIP3      H2             -5.6819745070       -3.0941069577       -4.3681336432  W1        61              0.0000000000
       184        62  TIP3      OH2            -1.8253445070       -4.9031169577      -17.6598236432  W1        62              0.0000000000
       185        62  TIP3      H1             -2.2562745070       -5.3481069577      -16.9300836432  W1        62              0.0000000000
       186        62  TIP3      H2             -2.5434745070       -4.5314869577      -18.1720736432  W1        62              0.0000000000
       187        63  TIP3      OH2            -8.5830045070       -5.1611669577      -10.6079536432  W1        63              0.0000000000
       188        63  TIP3      H1             -7.9522345070       -5.1899569577       -9.8885636432  W1        63              0.0000000000
       189        63  TIP3      H2             -8.1335745070       -5.5862969577      -11.3383636432  W1        63              0.0000000000
       190        64  TIP3      OH2            -7.3087945070       -4.4149669577      -15.1839136432  W1        64              0.0000000000
       191        64  TIP3      H1             -6.8346245070       -3.8239769577      -15.7688236432  W1        64              0.0000000000
       192        64  TIP3      H2             -8.0261545070       -3.8846769577      -14.8369036432  W1        64              0.0000000000
       193        65  TIP3      OH2             2.8600154930       -0.8764869577       -5.1113336432  W1        65              0.0000000000
       194        65  TIP3      H1              3.1834954930       -1.5075169577       -5.7542836432  W1        65              0.0000000000
       195        65  TIP3      H2              2.4199454930       -1.4112669577       -4.4505936432  W1        65              0.0000000000
       196        66  TIP3      OH2            -0.3626945070       -4.9489369577      -10.3272136432  W1        66              0.0000000000
       197        66  TIP3      H1             -1.2735845070       -4.8922569577      -10.0386136432  W1        66              0.0000000000
       198        66  TIP3      H2              0.1425954930       -5.0093869577       -9.5164936432  W1        66              0.0000000000
       199        67  TIP3      OH2            -5.5343545070       -3.3203069577      -11.5004536432  W1        67              0.0000000000
       200        67  TIP3      H1             -6.4235545070       -3.2207569577      -11.8404936432  W1        67              0.0000000000
       201        67  TIP3      H2             -5.2378645070       -4.1620069577      -11.8466636432  W1        67              0.0000000000
       202        68  TIP3      OH2            -1.8811745070       -3.3200469577      -13.8439936432  W1        68              0.0000000000
       203        68  TIP3      H1             -0.9496245070       -3.1910469577      -13.6656836432  W1        68              0.0000000000
       204        68  TIP3      H2             -2.0961445070       -2.6506169577      -14.4935236432  W1        68              0.0000000000
       205        69  TIP3      OH2             4.0424954930       -5.7143069577       -7.0630336432  W1        69              0.0000000000
       206        69  TIP3      H1              3.3656554930       -5.5829969577       -6.3990636432  W1        69              0.0000000000
       207        69  TIP3      H2              3.5569854930       -5.8693569577       -7.8732636432  W1        69              0.0000000000
       208        70  TIP3      OH2            -3.2071545070       -2.1258269577      -16.2773836432  W1        70              0.0000000000
       209        70  TIP3      H1             -3.7496445070       -2.5054469577      -16.9686236432  W1        70              0.0000000000
       210        70  TIP3      H2             -2.3736645070       -1.9313569577      -16.7059736432  W1        70              0.0000000000
       211        71  TIP3      OH2            -5.0720145070        2.4313630423       -1.1782236432  W1        71              0.0000000000
       212        71  TIP3      H1             -4.3397745070        2.6859530423       -0.6167736432  W1        71              0.0000000000
       213        71  TIP3      H2             -5.8521445070        2.6359030423       -0.6626836432  W1        71              0.0000000000
       214        72  TIP3      OH2             0.9572754930       -2.1616369577       -8.4402536432  W1        72              0.0000000000
       215        72  TIP3      H1              1.5216154930       -2.7079769577       -8.9872936432  W1        72              0.0000000000
       216        72  TIP3      H2              0.8096154930       -2.6834469577       -7.6514936432  W1        72              0.0000000000
       217        73  TIP3      OH2            -4.0407545070       -6.0250269577      -12.0217736432  W1        73              0.0000000000
       218        73  TIP3      H1             -4.3578045070       -6.9274969577      -12.0572336432  W1        73              0.0000000000
       219        73  TIP3      H2             -3.2593445070       -6.0232869577      -12.5746136432  W1        73              0.0000000000
       220        74  TIP3      OH2            -0.4161345070       -3.7730269577       -6.0262136432  W1        74              0.0000000000
       221        74  TIP3      H1             -1.2516045070       -3.3190769577       -5.9159736432  W1        74              0.0000000000
       222        74  TIP3      H2              0.1079254930       -3.4971769577       -5.2742236432  W1        74              0.0000000000
       223        75  TIP3      OH2             0.1281254930        2.4397430423      -14.3415736432  W1        75              0.0000000000
       224        75  TIP3      H1             -0.6167745070        1.9322730423      -14.6637836432  W1        75              0.0000000000
       225        75  TIP3      H2             -0.0061545070        2.4885430423      -13.3950936432  W1        75              0.0000000000
       226        76  TIP3      OH2             7.2780154930        1.5725630423       -5.5548136432  W1        76              0.0000000000
       227        76  TIP3      H1              7.9198954930        2.0291930423       -6.0985936432  W1        76              0.0000000000
       228        76  TIP3      H2              6.4477054930        1.6858030423       -6.0174036432  W1        76              0.0000000000
       229        77  TIP3      OH2             4.0258054930       -4.7462669577      -16.1423136432  W1        77              0.0000000000
       230        77  TIP3      H1              3.0872254930       -4.6347069577      -16.2934336432  W1        77              0.0000000000
       231        77  TIP3      H2              4.3230154930       -3.8895769577      -15.8357436432  W1        77              0.0000000000
       232        78  TIP3      OH2             1.6473354930        2.6240730423       -3.1046636432  W1        78              0.0000000000
       233        78  TIP3      H1              1.3019454930        2.2423130423       -2.2977036432  W1        78              0.0000000000
       234        78  TIP3      H2              1.4473454930        3.5574330423       -3.0333736432  W1        78              0.0000000000
       235        79  TIP3      OH2             4.7441554930       -2.8789969577      -14.4815736432  W1        79              0.0000000000
       236        79  TIP3      H1              5.6360554930       -3.0164969577      -14.1624536432  W1        79              0.0000000000
       237        79  TIP3      H2              4.8005154930       -2.0883869577      -15.0182236432  W1        79              0.0000000000
       238        80  TIP3      OH2            -4.7470445070        1.7347430423       -8.5717836432  W1        80              0.0000000000
       239        80  TIP3      H1             -4.0023245070        1.7323130423       -9.1731336432  W1        80              0.0000000000
       240        80  TIP3      H2             -4.6693845070        0.9111230423       -8.0902736432  W1        80              0.0000000000
       241        81  TIP3      OH2             2.2535354930        3.8981730423      -15.3161136432  W1        81              0.0000000000
       242        81  TIP3      H1              1.9583754930        4.7249630423      -14.9346336432  W1        81              0.0000000000
       243        81  TIP3      H2              1.5505354930        3.2788630423      -15.1199736432  W1        81              0.0000000000
       244        82  TIP3      OH2            -7.7390745070        0.1954330423       -3.2569336432  W1        82              0.0000000000
       245        82  TIP3      H1             -7.5162145070       -0.2226069577       -2.4251836432  W1        82              0.0000000000
       246        82  TIP3      H2             -8.3410645070       -0.4170669577       -3.6796536432  W1        82              0.0000000000
       247        83  TIP3      OH2            -0.7225845070       -0.2875769577       -1.0439636432  W1        83              0.0000000000
       248        83  TIP3      H1             -1.0185045070       -0.4532769577       -1.9390536432  W1        83              0.0000000000
       249        83  TIP3      H2              0.2089354930       -0.5075469577       -1.0545736432  W1        83              0.0000000000
       250        84  TIP3      OH2             3.8976954930        5.0856230423       -3.1541636432  W1        84              0.0000000000
       251        84  TIP3      H1              2.9971254930        5.2688830423       -3.4217736432  W1        84              0.0000000000
       252        84  TIP3      H2              3.9318054930        5.3445530423       -2.2332836432  W1        84              0.0000000000
       253        85  TIP3      OH2             7.9241954930        6.1164530423      -14.3216936432  W1        85              0.0000000000
       254        85  TIP3      H1              7.5513054930        5.2908330423      -14.0126336432  W1        85              0.0000000000
       255        85  TIP3      H2              8.2015454930        5.9333930423      -15.2193536432  W1        85              0.0000000000
       256        86  TIP3      OH2             5.0845854930        0.9244030423       -7.3005036432  W1        86              0.0000000000
       257        86  TIP3      H1              4.1562754930        0.6925930423       -7.3275736432  W1        86              0.0000000000
       258        86  TIP3      H2              5.5356954930        0.1473830423       -7.6306236432  W1        86              0.0000000000
       259        87  TIP3      OH2            -2.3721045070        5.2525630423      -11.1676336432  W1        87              0.0000000000
       260        87  TIP3      H1             -1.8448845070        6.0260030423      -11.3677536432  W1        87              0.0000000000
       261        87  TIP3      H2             -3.2522545070        5.4774830423      -11.4692336432  W1        87              0.0000000000
       262        88  TIP3      OH2            -6.6173345070        0.1149730423      -16.5803936432  W1        88              0.0000000000
       263        88  TIP3      H1             -6.0013445070        0.7416930423      -16.2009136432  W1        88              0.0000000000
       264        88  TIP3      H2             -7.4790745070        0.4309530423      -16.3087436432  W1        88              0.0000000000
       265        89  TIP3      OH2            -0.9448745070        2.9155530423      -11.5912036432  W1        89              0.0000000000
       266        89  TIP3      H1             -1.1858745070        3.8409930423      -11.5496736432  W1        89              0.0000000000
       267        89  TIP3      H2             -1.6855145070        2.4566830423      -11.1948136432  W1        89              0.0000000000
       268        90  TIP3      OH2            -0.4302145070        7.0649130423       -5.2760936432  W1        90              0.0000000000
       269        90  TIP3      H1             -0.0677445070        7.9194730423       -5.5096536432  W1        90              0.0000000000
       270        90  TIP3      H2              0.1013054930        6.7730730423       -4.5354636432  W1        90              0.0000000000
       271        91  TIP3      OH2            -2.2617945070        7.9373130423      -12.0459836432  W1        91              0.0000000000
       272        91  TIP3      H1             -3.2117445070        8.0430530423      -11.9946536432  W1        91              0.0000000000
       273        91  TIP3      H2             -1.9099845070        8.7580530423      -11.7012336432  W1        91              0.0000000000
       274        92  TIP3      OH2             3.1138654930        3.1639830423       -5.5755336432  W1        92              0.0000000000
       275        92  TIP3      H1              2.6879954930        2.9361530423       -4.7491336432  W1        92              0.0000000000
       276        92  TIP3      H2              3.6944454930        2.4251630423       -5.7580036432  W1        92              0.0000000000
       277        93  TIP3      OH2             5.3167554930        4.0930330423      -16.5016336432  W1        93              0.0000000000
       278        93  TIP3      H1              5.6700654930        3.7130130423      -15.6972836432  W1        93              0.0000000000
       279        93  TIP3      H2              4.3681054930        3.9995130423      -16.4147036432  W1        93              0.0000000000
       280        94  TIP3      OH2             5.7722854930        7.7159330423       -3.1060536432  W1        94              0.0000000000
       281        94  TIP3      H1              5.1706054930        7.1602230423       -3.6014236432  W1        94              0.0000000000
       282        94  TIP3      H2              6.0536554930        8.3829130423       -3.7323136432  W1        94              0.0000000000
       283        95  TIP3      OH2            -6.1051245070       -5.0512969577       -3.6987936432  W1        95              0.0000000000
       284        95  TIP3      H1             -6.9978945070       -4.7127569577       -3.7663936432  W1        95              0.0000000000
       285        95  TIP3      H2             -6.2038445070       -5.9066869577       -3.2807136432  W1        95              0.0000000000
       286        96  TIP3      OH2             6.1826854930        2.7652330423      -14.2748436432  W1        96              0.0000000000
       287        96  TIP3      H1              5.9054454930        2.0371630423      -13.7187336432  W1        96              0.0000000000
       288        96  TIP3      H2              7.1099854930        2.8844330423      -14.0695836432  W1        96              0.0000000000
       289        97  TIP3      OH2            -6.4539245070        6.7531430423       -5.2638536432  W1        97              0.0000000000
       290        97  TIP3      H1             -6.2368945070        5.8213830423       -5.2948836432  W1        97              0.0000000000
       291        97  TIP3      H2             -6.2075745070        7.0276430423       -4.3805736432  W1        97              0.0000000000
       292        98  TIP3      OH2            -0.5924645070        5.2046430423      -18.0546336432  W1        98              0.0000000000
       293        98  TIP3      H1             -0.3534845070        4.4564530423      -18.6017436432  W1        98              0.0000000000
       294        98  TIP3      H2             -0.8613345070        4.8168130423      -17.2218536432  W1        98              0.0000000000
       295        99  TIP3      OH2            -1.6554045070        4.7750230423      -15.5983736432  W1        99              0.0000000000
       296        99  TIP3      H1             -1.5086045070        4.2550030423      -14.8082836432  W1        99              0.0000000000
       297        99  TIP3      H2             -1.6582345070        5.6817830423      -15.2917836432  W1        99              0.0000000000
       298       100  TIP3      OH2            -5.2022945070        2.0273530423      -15.0878336432  W1        100             0.0000000000
       299       100  TIP3      H1             -5.8883645070        2.3796030423      -14.5208636432  W1        100             0.0000000000
       300       100  TIP3      H2             -4.6795045070        2.7903130423      -15.3344036432  W1        100             0.0000000000
       301       101  TIP3      OH2             2.6292154930       -5.3102669577       -4.8089336432  W1        101             0.0000000000
       302       101  TIP3      H1              3.3280054930       -5.2363969577       -4.1589636432  W1        101             0.0000000000
       303       101  TIP3      H2              2.2483554930       -6.1747669577       -4.6546436432  W1        101             0.0000000000
       304       102  TIP3      OH2             3.4137054930       -5.6580969577      -13.7117036432  W1        102             0.0000000000
       305       102  TIP3      H1              3.6335354930       -5.1865569577      -14.5151636432  W1        102             0.0000000000
       306       102  TIP3      H2              3.9721054930       -5.2638369577      -13.0416436432  W1        102             0.0000000000
       307       103  TIP3      OH2             1.0823154930        6.4723830423      -14.8489536432  W1        103             0.0000000000
       308       103  TIP3      H1              0.2659254930        6.9693530423      -14.7965236432  W1        103             0.0000000000
       309       103  TIP3      H2              1.6119454930        6.9477330423      -15.4890736432  W1        103             0.0000000000
       310       104  TIP3      OH2             0.6136954930       -3.9302169577      -12.8768636432  W1        104             0.0000000000
       311       104  TIP3      H1              1.4259554930       -3.4258969577      -12.8306936432  W1        104             0.0000000000
       312       104  TIP3      H2              0.3689954930       -4.0752469577      -11.9629036432  W1        104             0.0000000000
       313       105  TIP3      OH2             1.1493354930       -2.9439469577       -3.6922036432  W1        105             0.0000000000
       314       105  TIP3      H1              1.2683654930       -2.3704069577       -2.9351636432  W1        105             0.0000000000
       315       105  TIP3      H2              1.8047954930       -3.6320069577       -3.5774236432  W1        105             0.0000000000
       316       106  TIP3      OH2             1.4973654930       -6.8489169577      -11.9387536432  W1        106             0.0000000000
       317       106  TIP3      H1              1.1507154930       -6.2318569577      -11.2943236432  W1        106             0.0000000000
       318       106  TIP3      H2              2.1560554930       -6.3483469577      -12.4202036432  W1        106             0.0000000000
       319       107  TIP3      OH2            -1.5793745070        7.5161030423      -14.8672636432  W1        107             0.0000000000
       320       107  TIP3      H1             -1.4185045070        8.3158530423      -15.3680036432  W1        107             0.0000000000
       321       107  TIP3      H2             -1.7765945070        7.8227030423      -13.9822036432  W1        107             0.0000000000
       322       108  TIP3      OH2            -2.8449345070       -5.7859769577      -15.2515036432  W1        108             0.0000000000
       323       108  TIP3      H1             -2.9284545070       -4.8976669577      -14.9048636432  W1        108             0.0000000000
       324       108  TIP3      H2             -1.9549045070       -6.0513069577      -15.0198236432  W1        108             0.0000000000
       325       109  TIP3      OH2             7.3539154930       -5.0369169577       -2.8572336432  W1        109             0.0000000000
       326       109  TIP3      H1              6.4374954930       -4.7747469577       -2.9448636432  W1        109             0.0000000000
       327       109  TIP3      H2              7.6894154930       -5.0400169577       -3.7537036432  W1        109             0.0000000000
       328       110  TIP3      OH2             5.9560154930       -1.2868169577       -8.7615036432  W1        110             0.0000000000
       329       110  TIP3      H1              5.1584554930       -1.7017969577       -9.0900036432  W1        110             0.0000000000
       330       110  TIP3      H2              6.4011254930       -1.9774469577       -8.2704536432  W1        110             0.0000000000
       331       111  TIP3      OH2            -4.5864045070        4.6412430423      -16.1910536432  W1        111             0.0000000000
       332       111  TIP3      H1             -3.9942545070        5.3407230423      -15.9148136432  W1        111             0.0000000000
       333       111  TIP3      H2             -4.1271045070        4.2081930423      -16.9105936432  W1        111             0.0000000000
       334       112  TIP3      OH2            -6.2704845070       -2.6944569577      -17.0751136432  W1        112             0.0000000000
       335       112  TIP3      H1             -6.3152245070       -1.7551469577      -16.8964136432  W1        112             0.0000000000
       336       112  TIP3      H2             -7.1581645070       -2.9299669577      -17.3449036432  W1        112             0.0000000000
       337       113  TIP3      OH2             7.0424754930        7.9694330423       -7.1391536432  W1        113             0.0000000000
       338       113  TIP3      H1              6.8869054930        8.6478730423       -7.7962236432  W1        113             0.0000000000
       339       113  TIP3      H2              7.9751154930        8.0413630423       -6.9360936432  W1        113             0.0000000000
       340       114  TIP3      OH2            -5.4622845070       -7.9127969577       -8.4020136432  W1        114             0.0000000000
       341       114  TIP3      H1             -5.6913045070       -7.8535469577       -9.3295136432  W1        114             0.0000000000
       342       114  TIP3      H2             -5.9049445070       -8.7042469577       -8.0956036432  W1        114             0.0000000000
       343       115  TIP3      OH2            -6.5319545070        6.0279130423      -12.2414336432  W1        115             0.0000000000
       344       115  TIP3      H1             -7.3640945070        6.5001830423      -12.2142936432  W1        115             0.0000000000
       345       115  TIP3      H2             -5.9861245070        6.5376730423      -12.8401236432  W1        115             0.0000000000
       346       116  TIP3      OH2            -7.2435845070        8.6402830423       -0.9116336432  W1        116             0.0000000000
       347       116  TIP3      H1             -6.7033645070        8.4236830423       -0.1517136432  W1        116             0.0000000000
       348       116  TIP3      H2             -7.7247845070        7.8348830423       -1.1013836432  W1        116             0.0000000000
       349       117  TIP3      OH2            -2.6462445070        7.5597230423        0.7087863568  W1        117             0.0000000000
       350       117  TIP3      H1             -1.8785245070        7.1008030423        1.0497063568  W1        117             0.0000000000
       351       117  TIP3      H2             -2.6676245070        7.3337030423       -0.2210936432  W1        117             0.0000000000
       352       118  TIP3      OH2             1.4457154930        7.0677830423      -17.9160336432  W1        118             0.0000000000
       353       118  TIP3      H1              0.8018154930        6.4366430423      -17.5946636432  W1        118             0.0000000000
       354       118  TIP3      H2              2.2075454930        6.5365830423      -18.1476836432  W1        118             0.0000000000
       355       119  TIP3      OH2             3.9306254930        5.9398330423       -0.5620636432  W1        119             0.0000000000
       356       119  TIP3      H1              3.5795754930        5.0831330423       -0.3190236432  W1        119             0.0000000000
       357       119  TIP3      H2              4.6569454930        6.0825030423        0.0448363568  W1        119             0.0000000000
       358       120  TIP3      OH2             6.0500054930        6.8847730423      -17.6822336432  W1        120             0.0000000000
       359       120  TIP3      H1              6.3330454930        6.0902930423      -17.2295436432  W1        120             0.0000000000
       360       120  TIP3      H2              6.7897954930        7.1178730423      -18.2431236432  W1        120             0.0000000000
       361       121  TIP3      OH2            -7.3366345070        2.4506930423        0.0427963568  W1        121             0.0000000000
       362       121  TIP3      H1             -7.1925845070        1.5487630423       -0.2435336432  W1        121             0.0000000000
       363       121  TIP3      H2             -8.1088945070        2.7369030423       -0.4449736432  W1        121             0.0000000000
       364       122  TIP3      OH2            -2.9952645070        2.7942630423      -17.8247436432  W1        122             0.0000000000
       365       122  TIP3      H1             -2.9308545070        2.0002230423      -17.2941036432  W1        122             0.0000000000
       366       122  TIP3      H2             -2.3423445070        2.6755430423      -18.5145436432  W1        122             0.0000000000
       367       123  TIP3      OH2            -0.6810245070        2.4205030423       -0.5245636432  W1        123             0.0000000000
       368       123  TIP3      H1             -1.0096445070        2.6913130423       -1.3818236432  W1        123             0.0000000000
       369       123  TIP3      H2             -0.5292045070        1.4794830423       -0.6120636432  W1        123             0.0000000000
       370       124  TIP3      OH2             2.3570754930        3.8414330423      -18.0889436432  W1        124             0.0000000000
       371       124  TIP3      H1              2.0884854930        4.0216430423      -17.1880536432  W1        124             0.0000000000
       372       124  TIP3      H2              2.1506354930        2.9160530423      -18.2203636432  W1        124             0.0000000000
       373       125  TIP3      OH2             5.0534954930        2.3362330423       -3.1413336432  W1        125             0.0000000000
       374       125  TIP3      H1              5.7989754930        2.9246030423       -3.2609336432  W1        125             0.0000000000
       375       125  TIP3      H2              4.2961754930        2.9182030423       -3.0780236432  W1        125             0.0000000000
       376       126  TIP3      OH2            -6.5039845070       -0.3489769577       -0.5372736432  W1        126             0.0000000000
       377       126  TIP3      H1             -6.0958645070       -1.2063169577       -0.6582136432  W1        126             0.0000000000
       378       126  TIP3      H2             -6.7642245070       -0.3348469577        0.3837563568  W1        126             0.0000000000
       379       127  TIP3      OH2            -1.8458845070        0.7668830423      -15.5189436432  W1        127             0.0000000000
       380       127  TIP3      H1             -2.3056845070        0.2827130423      -14.8330936432  W1        127             0.0000000000
       381       127  TIP3      H2             -1.5910145070        0.0984230423      -16.1548936432  W1        127             0.0000000000
       382       128  TIP3      OH2            -2.5569545070       -1.3404069577       -3.1629836432  W1        128             0.0000000000
       383       128  TIP3      H1             -3.1753445070       -0.6657469577       -2.8825136432  W1        128             0.0000000000
       384       128  TIP3      H2             -2.2128345070       -1.0190169577       -3.9963636432  W1        128             0.0000000000
       385       129  TIP3      OH2            -0.7748445070       -0.9899369577      -17.2566236432  W1        129             0.0000000000
       386       129  TIP3      H1             -0.9553445070       -1.1448169577      -18.1837936432  W1        129             0.0000000000
       387       129  TIP3      H2              0.1752054930       -0.8820669577      -17.2118336432  W1        129             0.0000000000
       388       130  TIP3      OH2             2.4628654930        1.1311230423        0.1144963568  W1        130             0.0000000000
       389       130  TIP3      H1              3.4159854930        1.2150330423        0.0870963568  W1        130             0.0000000000
       390       130  TIP3      H2              2.3023254930        0.4193030423        0.7339863568  W1        130             0.0000000000
       391       131  TIP3      OH2            -2.2175845070       -3.9853269577       -2.0806736432  W1        131             0.0000000000
       392       131  TIP3      H1             -2.0674945070       -4.7141969577       -2.6827036432  W1        131             0.0000000000
       393       131  TIP3      H2             -2.2153445070       -3.2081569577       -2.6394536432  W1        131             0.0000000000
       394       132  TIP3      OH2            -1.8050145070       -5.6157469577       -4.5879336432  W1        132             0.0000000000
       395       132  TIP3      H1             -1.2692645070       -5.1640769577       -5.2400036432  W1        132             0.0000000000
       396       132  TIP3      H2             -2.6570545070       -5.7237669577       -5.0105236432  W1        132             0.0000000000
       397       133  TIP3      OH2            -0.2231745070       -0.1761269577       -4.3484136432  W1        133             0.0000000000
       398       133  TIP3      H1              0.5273054930       -0.3323769577       -4.9216336432  W1        133             0.0000000000
       399       133  TIP3      H2             -0.5623445070        0.6755330423       -4.6238636432  W1        133             0.0000000000
       400       134  TIP3      OH2             4.1924454930       -2.3609469577        0.6801163568  W1        134             0.0000000000
       401       134  TIP3      H1              4.3845754930       -3.2920069577        0.5685663568  W1        134             0.0000000000
       402       134  TIP3      H2              5.0500754930       -1.9359969577        0.6696563568  W1        134             0.0000000000
       403       135  TIP3      OH2             5.5091654930        0.4275730423       -1.2426136432  W1        135             0.0000000000
       404       135  TIP3      H1              5.2276654930        1.1370330423       -1.8202336432  W1        135             0.0000000000
       405       135  TIP3      H2              6.4515954930        0.3548730423       -1.3934936432  W1        135             0.0000000000
       406       136  TIP3      OH2            -3.7389545070       -2.7869769577       -0.1691136432  W1        136             0.0000000000
       407       136  TIP3      H1             -4.5060545070       -3.3194969577       -0.3793536432  W1        136             0.0000000000
       408       136  TIP3      H2             -3.0600545070       -3.0969369577       -0.7684836432  W1        136             0.0000000000
       409       137  TIP3      OH2            -0.9994645070       -8.1591769577       -4.1565736432  W1        137             0.0000000000
       410       137  TIP3      H1             -1.0975045070       -7.2128569577       -4.2619536432  W1        137             0.0000000000
       411       137  TIP3      H2             -1.7418445070       -8.5317969577       -4.6322236432  W1        137             0.0000000000
       412       138  TIP3      OH2             0.2645854930       -3.8376369577       -0.5927336432  W1        138             0.0000000000
       413       138  TIP3      H1              0.0291254930       -4.0569669577        0.3087563568  W1        138             0.0000000000
       414       138  TIP3      H2             -0.5187245070       -4.0445169577       -1.1024836432  W1        138             0.0000000000
       415       139  TIP3      OH2             2.9802454930       -4.7102869577       -1.5173836432  W1        139             0.0000000000
       416       139  TIP3      H1              2.0327854930       -4.6783169577       -1.3850536432  W1        139             0.0000000000
       417       139  TIP3      H2              3.2929154930       -5.3355769577       -0.8635636432  W1        139             0.0000000000
       418       140  TIP3      OH2             4.6143954930       -6.0761769577        0.4878063568  W1        140             0.0000000000
       419       140  TIP3      H1              4.5175754930       -7.0284469577        0.4819963568  W1        140             0.0000000000
       420       140  TIP3      H2              4.2927054930       -5.8074969577        1.3483563568  W1        140             0.0000000000
       421       141  TIP3      OH2            -5.5586745070       -4.8665969577       -0.4646436432  W1        141             0.0000000000
       422       141  TIP3      H1             -5.3469345070       -5.5729869577       -1.0748936432  W1        141             0.0000000000
       423       141  TIP3      H2             -5.6699245070       -5.3039969577        0.3794763568  W1        141             0.0000000000
       424       142  TIP3      OH2            -0.4239045070       -7.1825969577        0.5683363568  W1        143             0.0000000000
       425       142  TIP3      H1             -0.5556845070       -7.6582169577       -0.2518136432  W1        143             0.0000000000
       426       142  TIP3      H2             -1.0231645070       -6.4382369577        0.5130463568  W1        143             0.0000000000
       427       143  TIP3      OH2            -7.3091845070        4.3368130423      -16.7724536432  W1        144             0.0000000000
       428       143  TIP3      H1             -6.3952645070        4.4157030423      -16.4990636432  W1        144             0.0000000000
       429       143  TIP3      H2             -7.3018745070        3.6497730423      -17.4388936432  W1        144             0.0000000000
       430       144  TIP3      OH2            -7.7902045070        7.8103630423       -9.8904436432  W1        145             0.0000000000
       431       144  TIP3      H1             -8.1245245070        6.9300930423       -9.7184236432  W1        145             0.0000000000
       432       144  TIP3      H2             -7.5679645070        8.1558630423       -9.0258836432  W1        145             0.0000000000
       433       145  TIP3      OH2             7.7722954930        3.9769230423        0.6499763568  W1        146             0.0000000000
       434       145  TIP3      H1              6.9064054930        3.8718930423        1.0442063568  W1        146             0.0000000000
       435       145  TIP3      H2              8.1488854930        4.7352530423        1.0964463568  W1        146             0.0000000000
       436       146  TIP3      OH2             7.7131754930        5.9495330423       -4.7576036432  W1        147             0.0000000000
       437       146  TIP3      H1              7.0657054930        6.2746830423       -4.1320836432  W1        147             0.0000000000
       438       146  TIP3      H2              7.1955754930        5.5093030423       -5.4317736432  W1        147             0.0000000000
       439       147  TIP3      OH2             8.0850354930       -2.5725569577      -17.0703636432  W1        148             0.0000000000
       440       147  TIP3      H1              8.1814754930       -1.9058569577      -17.7503936432  W1        148             0.0000000000
       441       147  TIP3      H2              7.9449954930       -3.3879269577      -17.5518136432  W1        148             0.0000000000
       442       148  TIP3      OH2             7.2545054930       -1.1923169577      -11.4493336432  W1        149             0.0000000000
       443       148  TIP3      H1              7.1043854930       -2.1374569577      -11.4695536432  W1        149             0.0000000000
       444       148  TIP3      H2              6.9009554930       -0.9111769577      -10.6054236432  W1        149             0.0000000000
       445       149  TIP3      OH2            -7.7102545070        0.8859030423       -7.4389536432  W1        150             0.0000000000
       446       149  TIP3      H1             -7.5259645070        0.8040730423       -8.3746636432  W1        150             0.0000000000
       447       149  TIP3      H2             -6.8609645070        0.7616030423       -7.0153136432  W1        150             0.0000000000
       448       150  TIP3      OH2             8.1107954930        0.7780130423       -1.8105036432  W1        151             0.0000000000
       449       150  TIP3      H1              8.6935254930        0.0432430423       -1.6187836432  W1        151             0.0000000000
       450       150  TIP3      H2              8.6747254930        1.5500430423       -1.7639236432  W1        151             0.0000000000
       451       151  TIP3      OH2             7.3324154930       -5.1645769577      -17.9528136432  W1        152             0.0000000000
       452       151  TIP3      H1              7.9429954930       -5.5358969577      -17.3159936432  W1        152             0.0000000000
       453       151  TIP3      H2              6.4955654930       -5.5858869577      -17.7568136432  W1        152             0.0000000000
       454       152  TIP3      OH2             6.9649854930       -3.6097369577      -12.9868236432  W1        153             0.0000000000
       455       152  TIP3      H1              7.2446954930       -4.5166969577      -12.8626536432  W1        153             0.0000000000
       456       152  TIP3      H2              7.7241554930       -3.1755869577      -13.3759036432  W1        153             0.0000000000
       457       153  TIP3      OH2             7.5768154930       -3.0279969577       -7.5509336432  W1        154             0.0000000000
       458       153  TIP3      H1              8.5096154930       -2.8160069577       -7.5853336432  W1        154             0.0000000000
       459       153  TIP3      H2              7.3415654930       -2.9267869577       -6.6286336432  W1        154             0.0000000000
       460       154  TIP3      OH2             7.6060054930       -2.2914669577       -4.7749936432  W1        155             0.0000000000
       461       154  TIP3      H1              6.7631354930       -2.0234269577       -4.4090136432  W1        155             0.0000000000
       462       154  TIP3      H2              8.0484354930       -1.4692769577       -4.9858836432  W1        155             0.0000000000
       463       155  TIP3      OH2            -8.1127745070       -3.8435969577       -1.2980736432  W1        156             0.0000000000
       464       155  TIP3      H1             -7.1932845070       -3.9657669577       -1.0617636432  W1        156             0.0000000000
       465       155  TIP3      H2             -8.5623245070       -4.5936269577       -0.9087236432  W1        156             0.0000000000
       466       156  TIP3      OH2             7.5784654930       -6.3468069577      -12.9386236432  W1        157             0.0000000000
       467       156  TIP3      H1              7.7609654930       -6.7956569577      -12.1131236432  W1        157             0.0000000000
       468       156  TIP3      H2              6.9787554930       -6.9313669577      -13.4021636432  W1        157             0.0000000000
       469       157  TIP3      OH2            -6.8915245070       -5.5314369577       -8.4067836432  W1        158             0.0000000000
       470       157  TIP3      H1             -6.4463645070       -6.3231869577       -8.1048136432  W1        158             0.0000000000
       471       157  TIP3      H2             -6.4252245070       -4.8149169577       -7.9762236432  W1        158             0.0000000000
       472       158  TIP3      OH2            -8.5874945070       -2.5321369577       -7.3377636432  W1        159             0.0000000000
       473       158  TIP3      H1             -8.0955145070       -2.7530869577       -8.1285636432  W1        159             0.0000000000
       474       158  TIP3      H2             -8.2254045070       -1.6917969577       -7.0568136432  W1        159             0.0000000000
       475       159  TIP3      OH2            -8.2738445070       -6.2742269577      -13.2835236432  W1        160             0.0000000000
       476       159  TIP3      H1             -9.1990045070       -6.0655669577      -13.4129736432  W1        160             0.0000000000
       477       159  TIP3      H2             -7.8198545070       -5.7901469577      -13.9732936432  W1        160             0.0000000000
       478       160  TIP3      OH2             6.4968754930        8.7099430423      -11.3377836432  W1        161             0.0000000000
       479       160  TIP3      H1              7.1491654930        8.3621530423      -11.9458736432  W1        161             0.0000000000
       480       160  TIP3      H2              7.0072554930        9.1982630423      -10.6918136432  W1        161             0.0000000000
       481       161  TIP3      OH2            -6.1183745070        5.6390830423       -0.7946936432  W1        163             0.0000000000
       482       161  TIP3      H1             -6.9391245070        5.8137330423       -1.2552236432  W1        163             0.0000000000
       483       161  TIP3      H2             -6.3705945070        5.5655530423        0.1257463568  W1        163             0.0000000000
       484       162  TIP3      OH2            -3.1640845070        6.6132030423       -4.5362936432  W1        164             0.0000000000
       485       162  TIP3      H1             -3.5889745070        7.4230530423       -4.8188336432  W1        164             0.0000000000
       486       162  TIP3      H2             -2.2598045070        6.6986130423       -4.8383136432  W1        164             0.0000000000
       487       163  TIP3      OH2             1.1470554930        8.0122030423       -1.5769236432  W1        165             0.0000000000
       488       163  TIP3      H1              1.3318054930        7.6788130423       -0.6988936432  W1        165             0.0000000000
       489       163  TIP3      H2              1.9935054930        8.3220630423       -1.8990036432  W1        165             0.0000000000
       490       164  TIP3      OH2             8.4094754930       -8.1123569577       -3.2532836432  W1        166             0.0000000000
       491       164  TIP3      H1              7.5968254930       -7.7873269577       -3.6408136432  W1        166             0.0000000000
       492       164  TIP3      H2              8.6423254930       -8.8725069577       -3.7863736432  W1        166             0.0000000000
       493       165  TIP3      OH2             3.7430354930        8.2358330423       -5.3384136432  W1        167             0.0000000000
       494       165  TIP3      H1              2.8384054930        8.4008530423       -5.6042036432  W1        167             0.0000000000
       495       165  TIP3      H2              4.1718954930        9.0890530423       -5.4040736432  W1        167             0.0000000000
       496       166  TIP3      OH2            -6.3476045070        8.4928430423       -7.5785836432  W1        168             0.0000000000
       497       166  TIP3      H1             -6.3660045070        8.0673530423       -6.7213536432  W1        168             0.0000000000
       498       166  TIP3      H2             -5.5428145070        8.1743430423       -7.9873636432  W1        168             0.0000000000
       499       167  TIP3      OH2            -4.2062945070        7.2027130423       -8.9235936432  W1        169             0.0000000000
       500       167  TIP3      H1             -4.4252245070        6.2864530423       -8.7539936432  W1        169             0.0000000000
       501       167  TIP3      H2             -3.3820745070        7.3427530423       -8.4574536432  W1        169             0.0000000000
       502       168  TIP3      OH2            -1.6690445070        7.6726430423       -8.0747936432  W1        170             0.0000000000
       503       168  TIP3      H1             -1.4564745070        6.7845430423       -8.3617036432  W1        170             0.0000000000
       504       168  TIP3      H2             -1.6045345070        7.6384130423       -7.1203936432  W1        170             0.0000000000
       505       169  TIP3      OH2             1.8393254930       -6.6632969577       -8.9304636432  W1        171             0.0000000000
       506       169  TIP3      H1              1.1650054930       -7.2927369577       -8.6748836432  W1        171             0.0000000000
       507       169  TIP3      H2              2.4032454930       -7.1474069577       -9.5336736432  W1        171             0.0000000000
       508       170  TIP3      OH2             6.9820454930       -8.5558969577       -8.8177536432  W1        172             0.0000000000
       509       170  TIP3      H1              7.5858054930       -8.0083569577       -9.3196536432  W1        172             0.0000000000
       510       170  TIP3      H2              6.1122454930       -8.2368569577       -9.0583436432  W1        172             0.0000000000
       511       171  TIP3      OH2            -5.8339245070       -8.0292669577      -11.1084736432  W1        173             0.0000000000
       512       171  TIP3      H1             -6.6109445070       -8.2637769577      -11.6158836432  W1        173             0.0000000000
       513       171  TIP3      H2             -5.3035645070       -8.8260569577      -11.0996736432  W1        173             0.0000000000
       514       172  TIP3      OH2            -6.9975845070       -8.2314569577      -15.3048636432  W1        174             0.0000000000
       515       172  TIP3      H1             -6.5585145070       -7.6204069577      -15.8965136432  W1        174             0.0000000000
       516       172  TIP3      H2             -7.6313445070       -7.6930469577      -14.8308636432  W1        174             0.0000000000
       517       173  TIP3      OH2            -1.2546645070       -8.1025569577      -11.2951636432  W1        175             0.0000000000
       518       173  TIP3      H1             -0.3803245070       -7.7141269577      -11.3247336432  W1        175             0.0000000000
       519       173  TIP3      H2             -1.3905845070       -8.3177769577      -10.3724436432  W1        175             0.0000000000
       520       174  TIP3      OH2             4.3021754930       -8.0725769577       -9.6459936432  W1        176             0.0000000000
       521       174  TIP3      H1              4.3783354930       -7.9774169577      -10.5953936432  W1        176             0.0000000000
       522       174  TIP3      H2              4.0270954930       -8.9802869577       -9.5170836432  W1        176             0.0000000000
       523       175  TIP3      OH2             5.6554354930       -8.0467969577      -13.9534936432  W1        177             0.0000000000
       524       175  TIP3      H1              4.9525454930       -7.4318769577      -14.1633536432  W1        177             0.0000000000
       525       175  TIP3      H2              5.2105754930       -8.8841269577      -13.8224036432  W1        177             0.0000000000
       526       176  TIP3      OH2            -7.0966345070        7.7167630423      -14.4073536432  W1        178             0.0000000000
       527       176  TIP3      H1             -7.7816445070        7.6786530423      -15.0748436432  W1        178             0.0000000000
       528       176  TIP3      H2             -7.0929145070        8.6295230423      -14.1191436432  W1        178             0.0000000000
       529       177  TIP3      OH2            -5.1366745070       -6.3153069577      -16.8624536432  W1        179             0.0000000000
       530       177  TIP3      H1             -4.6453345070       -6.9450669577      -17.3899036432  W1        179             0.0000000000
       531       177  TIP3      H2             -4.5130445070       -6.0193669577      -16.1993336432  W1        179             0.0000000000
       532       178  TIP3      OH2            -0.1106645070       -6.0221569577      -14.4054036432  W1        180             0.0000000000
       533       178  TIP3      H1              0.0674654930       -6.6688369577      -13.7225436432  W1        180             0.0000000000
       534       178  TIP3      H2             -0.1640445070       -5.1883869577      -13.9382936432  W1        180             0.0000000000
       535       179  TIP3      OH2             1.7677154930        8.9262530423      -16.0097336432  W1        181             0.0000000000
       536       179  TIP3      H1              2.6337354930        9.2929930423      -16.1879136432  W1        181             0.0000000000
       537       179  TIP3      H2              1.5209954930        8.4870530423      -16.8236536432  W1        181             0.0000000000
       538       180  TIP3      OH2            -5.8761245070       -7.5150769577       -1.5908536432  W1        182             0.0000000000
       539       180  TIP3      H1             -6.2423045070       -8.2808169577       -1.1483836432  W1        182             0.0000000000
       540       180  TIP3      H2             -4.9632745070       -7.4860569577       -1.3043436432  W1        182             0.0000000000
       541       181  TIP3      OH2            -3.9030445070       -8.1646369577       -0.0551436432  W1        183             0.0000000000
       542       181  TIP3      H1             -3.0046845070       -8.4386169577       -0.2398036432  W1        183             0.0000000000
       543       181  TIP3      H2             -4.2897345070       -8.9070369577        0.4091163568  W1        183             0.0000000000
       544       182  TIP3      OH2            -5.2785145070        8.6368430423      -17.3821436432  W1        184             0.0000000000
       545       182  TIP3      H1             -5.5460545070        8.9231330423      -16.5088336432  W1        184             0.0000000000
       546       182  TIP3      H2             -4.5072545070        8.0907630423      -17.2298936432  W1        184             0.0000000000
       547       183  TIP3      OH2             7.6942954930        7.2405230423       -1.1804436432  W1        186             0.0000000000
       548       183  TIP3      H1              6.9124854930        7.0543230423       -1.7003836432  W1        186             0.0000000000
       549       183  TIP3      H2              7.6222854930        8.1699530423       -0.9631936432  W1        186             0.0000000000
       550       184  TIP3      OH2             3.2443354930        1.1269630423        7.7062763568  W2        1               0.0000000000
       551       184  TIP3      H1              3.3334454930        2.0707830423        7.5739863568  W2        1               0.0000000000
       552       184  TIP3      H2              2.6060954930        0.8516030423        7.0482163568  W2        1               0.0000000000
       553       185  TIP3      OH2             2.1774654930        0.3820330423       11.1250963568  W2        2               0.0000000000
       554       185  TIP3      H1              2.1392154930       -0.2643369577       11.8300563568  W2        2               0.0000000000
       555       185  TIP3      H2              1.8551154930       -0.0845269577       10.3539663568  W2        2               0.0000000000
       556       186  TIP3      OH2            -5.4540345070       -0.0037569577       12.7180863568  W2        3               0.0000000000
       557       186  TIP3      H1             -5.4128245070       -0.6294269577       13.4413263568  W2        3               0.0000000000
       558       186  TIP3      H2             -4.7512645070        0.6201030423       12.9001263568  W2        3               0.0000000000
       559       187  TIP3      OH2             5.8834854930        3.3210730423        9.4266063568  W2        4               0.0000000000
       560       187  TIP3      H1              5.4427554930        2.6006730423        9.8771663568  W2        4               0.0000000000
       561       187  TIP3      H2              5.8704554930        4.0417930423       10.0563763568  W2        4               0.0000000000
       562       188  TIP3      OH2            -4.5307245070        4.4461330423       11.2529963568  W2        5               0.0000000000
       563       188  TIP3      H1             -4.9002045070        3.6441830423       10.8834263568  W2        5               0.0000000000
       564       188  TIP3      H2             -3.5896145070        4.2776230423       11.2993363568  W2        5               0.0000000000
       565       189  TIP3      OH2            -7.9206745070       -1.8936069577        6.6458763568  W2        6               0.0000000000
       566       189  TIP3      H1             -8.3683345070       -1.0477369577        6.6275263568  W2        6               0.0000000000
       567       189  TIP3      H2             -8.4815545070       -2.4731869577        6.1303863568  W2        6               0.0000000000
       568       190  TIP3      OH2            -7.2100645070        0.2683530423        8.7716763568  W2        7               0.0000000000
       569       190  TIP3      H1             -6.9967145070       -0.5014869577        9.2989763568  W2        7               0.0000000000
       570       190  TIP3      H2             -6.4723045070        0.3580230423        8.1684363568  W2        7               0.0000000000
       571       191  TIP3      OH2             2.9950354930        8.4252430423        9.6386463568  W2        8               0.0000000000
       572       191  TIP3      H1              3.6146754930        7.7487130423        9.3655663568  W2        8               0.0000000000
       573       191  TIP3      H2              2.7867754930        8.2073230423       10.5471363568  W2        8               0.0000000000
       574       192  TIP3      OH2             0.5669054930        2.8141730423       11.5311963568  W2        9               0.0000000000
       575       192  TIP3      H1              0.8706954930        2.1283130423       10.9366063568  W2        9               0.0000000000
       576       192  TIP3      H2              1.2883054930        2.9330430423       12.1489963568  W2        9               0.0000000000
       577       193  TIP3      OH2             3.7076054930       -2.7915869577       11.8586763568  W2        10              0.0000000000
       578       193  TIP3      H1              3.8501954930       -3.7378869577       11.8788363568  W2        10              0.0000000000
       579       193  TIP3      H2              3.6015054930       -2.5846069577       10.9301663568  W2        10              0.0000000000
       580       194  TIP3      OH2            -3.1375645070       -4.6899469577        9.1311563568  W2        11              0.0000000000
       581       194  TIP3      H1             -3.0944545070       -3.8300969577        8.7127863568  W2        11              0.0000000000
       582       194  TIP3      H2             -3.5951545070       -5.2424769577        8.4974763568  W2        11              0.0000000000
       583       195  TIP3      OH2             4.5847054930       -4.5593869577        7.5319863568  W2        12              0.0000000000
       584       195  TIP3      H1              5.2311354930       -4.8880669577        8.1567463568  W2        12              0.0000000000
       585       195  TIP3      H2              5.0946454930       -4.0414869577        6.9091263568  W2        12              0.0000000000
       586       196  TIP3      OH2            -6.5174145070       -2.2933669577        9.8932963568  W2        13              0.0000000000
       587       196  TIP3      H1             -5.8637545070       -2.8431969577       10.3253063568  W2        13              0.0000000000
       588       196  TIP3      H2             -6.4934845070       -2.5674669577        8.9764963568  W2        13              0.0000000000
       589       197  TIP3      OH2            -1.3609645070       -0.7432369577        9.1084463568  W2        14              0.0000000000
       590       197  TIP3      H1             -0.7448645070       -1.2696969577        9.6178463568  W2        14              0.0000000000
       591       197  TIP3      H2             -1.9470845070       -1.3833669577        8.7048063568  W2        14              0.0000000000
       592       198  TIP3      OH2            -4.3273745070       -5.7721069577       13.2052363568  W2        15              0.0000000000
       593       198  TIP3      H1             -4.5462045070       -5.2420469577       12.4388363568  W2        15              0.0000000000
       594       198  TIP3      H2             -4.9952845070       -5.5455569577       13.8523763568  W2        15              0.0000000000
       595       199  TIP3      OH2             3.0416054930        3.7280030423        6.7491463568  W2        16              0.0000000000
       596       199  TIP3      H1              2.7461154930        3.4052330423        5.8978363568  W2        16              0.0000000000
       597       199  TIP3      H2              2.7173854930        4.6276730423        6.7904063568  W2        16              0.0000000000
       598       200  TIP3      OH2            -1.7582345070        1.9034630423       13.4926063568  W2        17              0.0000000000
       599       200  TIP3      H1             -2.4983245070        2.5016130423       13.5961263568  W2        17              0.0000000000
       600       200  TIP3      H2             -1.0442845070        2.4574230423       13.1769663568  W2        17              0.0000000000
       601       201  TIP3      OH2             6.3485454930       -5.2684569577        9.5125763568  W2        18              0.0000000000
       602       201  TIP3      H1              6.1333454930       -6.0341169577       10.0451763568  W2        18              0.0000000000
       603       201  TIP3      H2              7.0042854930       -4.7959969577       10.0254263568  W2        18              0.0000000000
       604       202  TIP3      OH2            -4.7336445070       -3.8799269577       11.1574563568  W2        19              0.0000000000
       605       202  TIP3      H1             -4.1200145070       -3.2471669577       11.5306963568  W2        19              0.0000000000
       606       202  TIP3      H2             -4.2215745070       -4.3524269577       10.5011463568  W2        19              0.0000000000
       607       203  TIP3      OH2            -3.3508045070        3.8677630423       14.2797563568  W2        20              0.0000000000
       608       203  TIP3      H1             -3.3560445070        4.7471130423       13.9016863568  W2        20              0.0000000000
       609       203  TIP3      H2             -4.2043945070        3.7841730423       14.7047463568  W2        20              0.0000000000
       610       204  TIP3      OH2            -7.2297145070        3.5385530423        5.0616863568  W2        21              0.0000000000
       611       204  TIP3      H1             -7.5016245070        3.7676530423        4.1729763568  W2        21              0.0000000000
       612       204  TIP3      H2             -7.1841445070        4.3764330423        5.5222163568  W2        21              0.0000000000
       613       205  TIP3      OH2             6.3952554930        5.1601430423       11.7745363568  W2        22              0.0000000000
       614       205  TIP3      H1              5.4536254930        5.2185330423       11.9362263568  W2        22              0.0000000000
       615       205  TIP3      H2              6.6718654930        6.0661930423       11.6375063568  W2        22              0.0000000000
       616       206  TIP3      OH2             6.6959554930       -6.5533269577       13.1919263568  W2        23              0.0000000000
       617       206  TIP3      H1              5.9598754930       -5.9426169577       13.1540563568  W2        23              0.0000000000
       618       206  TIP3      H2              7.3793554930       -6.1384269577       12.6655663568  W2        23              0.0000000000
       619       207  TIP3      OH2            -0.3009045070       -8.4665969577       10.6577263568  W2        24              0.0000000000
       620       207  TIP3      H1             -0.4184845070       -9.4149969577       10.6035563568  W2        24              0.0000000000
       621       207  TIP3      H2             -1.1558945070       -8.1339869577       10.9308363568  W2        24              0.0000000000
       622       208  TIP3      OH2             4.6473754930        6.9414930423        8.3996963568  W2        25              0.0000000000
       623       208  TIP3      H1              5.0726054930        6.2342830423        7.9146563568  W2        25              0.0000000000
       624       208  TIP3      H2              4.9643754930        7.7427630423        7.9829163568  W2        25              0.0000000000
       625       209  TIP3      OH2             5.8070254930        4.8423430423        6.9083563568  W2        26              0.0000000000
       626       209  TIP3      H1              5.5495054930        4.1523530423        6.2969463568  W2        26              0.0000000000
       627       209  TIP3      H2              5.8781054930        4.3994630423        7.7539463568  W2        26              0.0000000000
       628       210  TIP3      OH2             7.4930454930        3.4090130423       15.3857063568  W2        27              0.0000000000
       629       210  TIP3      H1              7.6326754930        2.8172630423       14.6464063568  W2        27              0.0000000000
       630       210  TIP3      H2              7.6603254930        4.2816030423       15.0295863568  W2        27              0.0000000000
       631       211  TIP3      OH2             1.9655854930        0.3709630423        5.1583063568  W2        28              0.0000000000
       632       211  TIP3      H1              1.2541354930        0.9059330423        4.8063563568  W2        28              0.0000000000
       633       211  TIP3      H2              2.6565454930        0.4261730423        4.4981963568  W2        28              0.0000000000
       634       212  TIP3      OH2             2.0195054930       -1.1716069577        2.1968063568  W2        29              0.0000000000
       635       212  TIP3      H1              2.7204954930       -1.1489169577        2.8482063568  W2        29              0.0000000000
       636       212  TIP3      H2              2.3217954930       -1.7996369577        1.5407363568  W2        29              0.0000000000
       637       213  TIP3      OH2             5.3713554930        0.5802930423        6.1098963568  W2        30              0.0000000000
       638       213  TIP3      H1              4.6394554930        0.8086630423        6.6829563568  W2        30              0.0000000000
       639       213  TIP3      H2              5.8185754930       -0.1334369577        6.5646463568  W2        30              0.0000000000
       640       214  TIP3      OH2             5.2687054930       -1.2454469577       15.1775963568  W2        31              0.0000000000
       641       214  TIP3      H1              5.3486154930       -0.4820069577       15.7494463568  W2        31              0.0000000000
       642       214  TIP3      H2              4.6674754930       -0.9662069577       14.4871063568  W2        31              0.0000000000
       643       215  TIP3      OH2            -2.9832745070        1.2109130423        7.9923963568  W2        32              0.0000000000
       644       215  TIP3      H1             -3.3137545070        0.8402530423        7.1740963568  W2        32              0.0000000000
       645       215  TIP3      H2             -2.3948645070        0.5403130423        8.3392263568  W2        32              0.0000000000
       646       216  TIP3      OH2            -1.6165245070        4.6389730423       10.6736163568  W2        33              0.0000000000
       647       216  TIP3      H1             -1.7113945070        4.0602830423        9.9170763568  W2        33              0.0000000000
       648       216  TIP3      H2             -0.8871645070        4.2675430423       11.1698963568  W2        33              0.0000000000
       649       217  TIP3      OH2            -2.6167245070       -0.0205269577       11.6258963568  W2        34              0.0000000000
       650       217  TIP3      H1             -2.0514745070        0.1008930423       10.8630163568  W2        34              0.0000000000
       651       217  TIP3      H2             -2.2978345070        0.6169730423       12.2647463568  W2        34              0.0000000000
       652       218  TIP3      OH2             3.6924954930        5.4826630423       12.3599463568  W2        35              0.0000000000
       653       218  TIP3      H1              3.4521554930        6.1449730423       13.0078663568  W2        35              0.0000000000
       654       218  TIP3      H2              3.4943154930        4.6481830423       12.7849063568  W2        35              0.0000000000
       655       219  TIP3      OH2            -1.7366545070        4.3787430423       16.3430863568  W2        36              0.0000000000
       656       219  TIP3      H1             -2.0479045070        5.1610630423       16.7984063568  W2        36              0.0000000000
       657       219  TIP3      H2             -2.3866345070        4.2256530423       15.6572863568  W2        36              0.0000000000
       658       220  TIP3      OH2             4.2423054930       -0.2574169577        3.7950163568  W2        37              0.0000000000
       659       220  TIP3      H1              4.8218554930       -0.1073869577        4.5419063568  W2        37              0.0000000000
       660       220  TIP3      H2              4.6563054930        0.2133230423        3.0716563568  W2        37              0.0000000000
       661       221  TIP3      OH2            -4.8166645070        0.5768530423       15.5716563568  W2        38              0.0000000000
       662       221  TIP3      H1             -4.7463445070        1.2275330423       16.2701563568  W2        38              0.0000000000
       663       221  TIP3      H2             -5.7074445070        0.6796030423       15.2367463568  W2        38              0.0000000000
       664       222  TIP3      OH2             1.9687954930        6.4794330423        7.2303263568  W2        39              0.0000000000
       665       222  TIP3      H1              2.4425554930        6.7750630423        8.0077463568  W2        39              0.0000000000
       666       222  TIP3      H2              1.4057254930        7.2175930423        6.9972863568  W2        39              0.0000000000
       667       223  TIP3      OH2            -3.4970645070        6.4502430423       17.1064663568  W2        40              0.0000000000
       668       223  TIP3      H1             -3.4895345070        6.3142130423       16.1590163568  W2        40              0.0000000000
       669       223  TIP3      H2             -4.4130245070        6.3330530423       17.3584663568  W2        40              0.0000000000
       670       224  TIP3      OH2             7.9411454930       -8.5073769577        3.6079863568  W2        41              0.0000000000
       671       224  TIP3      H1              7.0412154930       -8.3684769577        3.9030463568  W2        41              0.0000000000
       672       224  TIP3      H2              8.1929854930       -7.6759169577        3.2061563568  W2        41              0.0000000000
       673       225  TIP3      OH2            -3.9930045070        0.2803430423        5.5816763568  W2        42              0.0000000000
       674       225  TIP3      H1             -4.2848745070        1.0485130423        5.0908063568  W2        42              0.0000000000
       675       225  TIP3      H2             -4.6674845070       -0.3790369577        5.4188163568  W2        42              0.0000000000
       676       226  TIP3      OH2            -7.8999945070        2.6432630423       14.3966563568  W2        43              0.0000000000
       677       226  TIP3      H1             -8.4011545070        2.6152030423       13.5816263568  W2        43              0.0000000000
       678       226  TIP3      H2             -7.8946245070        1.7375830423       14.7063863568  W2        43              0.0000000000
       679       227  TIP3      OH2            -8.1497245070        5.4236430423       11.2806763568  W2        44              0.0000000000
       680       227  TIP3      H1             -7.2036645070        5.2793430423       11.2616263568  W2        44              0.0000000000
       681       227  TIP3      H2             -8.2620945070        6.2079230423       11.8177963568  W2        44              0.0000000000
       682       228  TIP3      OH2             1.0265254930        5.6635330423       15.8391863568  W2        45              0.0000000000
       683       228  TIP3      H1              1.1139854930        6.4899930423       16.3140963568  W2        45              0.0000000000
       684       228  TIP3      H2              0.1630354930        5.3339130423       16.0881163568  W2        45              0.0000000000
       685       229  TIP3      OH2            -4.9055145070        8.2246030423        7.4261463568  W2        46              0.0000000000
       686       229  TIP3      H1             -4.7534745070        7.8766430423        8.3047963568  W2        46              0.0000000000
       687       229  TIP3      H2             -5.7564745070        7.8683330423        7.1708663568  W2        46              0.0000000000
       688       230  TIP3      OH2             4.5427054930        8.5899230423        2.6474863568  W2        47              0.0000000000
       689       230  TIP3      H1              4.9175454930        7.8455330423        2.1767463568  W2        47              0.0000000000
       690       230  TIP3      H2              4.5470754930        8.3199830423        3.5658163568  W2        47              0.0000000000
       691       231  TIP3      OH2             4.2115154930        8.5156330423        5.3967063568  W2        48              0.0000000000
       692       231  TIP3      H1              3.2764954930        8.6158230423        5.5754063568  W2        48              0.0000000000
       693       231  TIP3      H2              4.4917054930        7.8062330423        5.9750263568  W2        48              0.0000000000
       694       232  TIP3      OH2             7.2001054930       -2.4171369577       17.4432663568  W2        49              0.0000000000
       695       232  TIP3      H1              6.7927854930       -1.9365769577       16.7225963568  W2        49              0.0000000000
       696       232  TIP3      H2              7.2406754930       -3.3225369577       17.1353463568  W2        49              0.0000000000
       697       233  TIP3      OH2            -5.6509445070        3.9668030423       15.4399363568  W2        50              0.0000000000
       698       233  TIP3      H1             -5.4348145070        3.6053630423       16.2995163568  W2        50              0.0000000000
       699       233  TIP3      H2             -6.5064745070        3.5921830423       15.2302863568  W2        50              0.0000000000
       700       234  TIP3      OH2            -3.0321445070       -7.5631469577       11.4353563568  W2        51              0.0000000000
       701       234  TIP3      H1             -3.8937745070       -7.6503269577       11.0276463568  W2        51              0.0000000000
       702       234  TIP3      H2             -3.0545745070       -6.7071369577       11.8631163568  W2        51              0.0000000000
       703       235  TIP3      OH2             1.6306354930       -7.8411069577       14.8100563568  W2        52              0.0000000000
       704       235  TIP3      H1              2.0509454930       -8.2563969577       15.5631163568  W2        52              0.0000000000
       705       235  TIP3      H2              0.6975954930       -8.0197769577       14.9272563568  W2        52              0.0000000000
       706       236  TIP3      OH2             4.9571254930       -4.0855869577       15.6635063568  W2        53              0.0000000000
       707       236  TIP3      H1              4.4430754930       -4.2113669577       16.4611063568  W2        53              0.0000000000
       708       236  TIP3      H2              4.8015954930       -3.1732769577       15.4191263568  W2        53              0.0000000000
       709       237  TIP3      OH2             5.7196154930        0.7754130423        1.4248063568  W2        54              0.0000000000
       710       237  TIP3      H1              5.7616954930        0.5528030423        0.4948063568  W2        54              0.0000000000
       711       237  TIP3      H2              6.5688254930        1.1741230423        1.6147963568  W2        54              0.0000000000
       712       238  TIP3      OH2             1.2923654930       -5.3487669577        2.0951363568  W2        55              0.0000000000
       713       238  TIP3      H1              1.0388454930       -5.3296069577        3.0179463568  W2        55              0.0000000000
       714       238  TIP3      H2              1.0355754930       -6.2202269577        1.7937563568  W2        55              0.0000000000
       715       239  TIP3      OH2            -2.9411345070       -2.5976969577       12.5303763568  W2        56              0.0000000000
       716       239  TIP3      H1             -3.5829245070       -2.6379669577       13.2393863568  W2        56              0.0000000000
       717       239  TIP3      H2             -2.9039345070       -1.6712269577       12.2926763568  W2        56              0.0000000000
       718       240  TIP3      OH2            -2.9442245070       -2.3766869577        7.4423763568  W2        57              0.0000000000
       719       240  TIP3      H1             -3.8369345070       -2.7170769577        7.3837563568  W2        57              0.0000000000
       720       240  TIP3      H2             -2.4935645070       -2.7535969577        6.6866963568  W2        57              0.0000000000
       721       241  TIP3      OH2             2.5913254930       -1.9606569577        6.2594563568  W2        58              0.0000000000
       722       241  TIP3      H1              2.1823554930       -1.1457969577        5.9679363568  W2        58              0.0000000000
       723       241  TIP3      H2              3.3119454930       -2.1006469577        5.6451663568  W2        58              0.0000000000
       724       242  TIP3      OH2             1.6934854930       -1.7850169577       17.7475263568  W2        59              0.0000000000
       725       242  TIP3      H1              1.1308654930       -2.4898569577       18.0683063568  W2        59              0.0000000000
       726       242  TIP3      H2              2.5198254930       -1.9058269577       18.2152863568  W2        59              0.0000000000
       727       243  TIP3      OH2             3.5960954930       -2.5146169577        9.0734263568  W2        60              0.0000000000
       728       243  TIP3      H1              3.4005454930       -1.9089369577        8.3584863568  W2        60              0.0000000000
       729       243  TIP3      H2              3.7773554930       -3.3480969577        8.6390563568  W2        60              0.0000000000
       730       244  TIP3      OH2            -5.1910845070       -2.2773469577       14.3975763568  W2        61              0.0000000000
       731       244  TIP3      H1             -5.2291445070       -1.8771869577       15.2662863568  W2        61              0.0000000000
       732       244  TIP3      H2             -5.6819745070       -3.0941069577       14.4878663568  W2        61              0.0000000000
       733       245  TIP3      OH2            -1.8253445070       -4.9031169577        1.1961763568  W2        62              0.0000000000
       734       245  TIP3      H1             -2.2562745070       -5.3481069577        1.9259163568  W2        62              0.0000000000
       735       245  TIP3      H2             -2.5434745070       -4.5314869577        0.6839263568  W2        62              0.0000000000
       736       246  TIP3      OH2            -8.5830045070       -5.1611669577        8.2480463568  W2        63              0.0000000000
       737       246  TIP3      H1             -7.9522345070       -5.1899569577        8.9674363568  W2        63              0.0000000000
       738       246  TIP3      H2             -8.1335745070       -5.5862969577        7.5176363568  W2        63              0.0000000000
       739       247  TIP3      OH2            -7.3087945070       -4.4149669577        3.6720863568  W2        64              0.0000000000
       740       247  TIP3      H1             -6.8346245070       -3.8239769577        3.0871763568  W2        64              0.0000000000
       741       247  TIP3      H2             -8.0261545070       -3.8846769577        4.0190963568  W2        64              0.0000000000
       742       248  TIP3      OH2             2.8600154930       -0.8764869577       13.7446663568  W2        65              0.0000000000
       743       248  TIP3      H1              3.1834954930       -1.5075169577       13.1017163568  W2        65              0.0000000000
       744       248  TIP3      H2              2.4199454930       -1.4112669577       14.4054063568  W2        65              0.0000000000
       745       249  TIP3      OH2            -0.3626945070       -4.9489369577        8.5287863568  W2        66              0.0000000000
       746       249  TIP3      H1             -1.2735845070       -4.8922569577        8.8173863568  W2        66              0.0000000000
       747       249  TIP3      H2              0.1425954930       -5.0093869577        9.3395063568  W2        66              0.0000000000
       748       250  TIP3      OH2            -5.5343545070       -3.3203069577        7.3555463568  W2        67              0.0000000000
       749       250  TIP3      H1             -6.4235545070       -3.2207569577        7.0155063568  W2        67              0.0000000000
       750       250  TIP3      H2             -5.2378645070       -4.1620069577        7.0093363568  W2        67              0.0000000000
       751       251  TIP3      OH2            -1.8811745070       -3.3200469577        5.0120063568  W2        68              0.0000000000
       752       251  TIP3      H1             -0.9496245070       -3.1910469577        5.1903163568  W2        68              0.0000000000
       753       251  TIP3      H2             -2.0961445070       -2.6506169577        4.3624763568  W2        68              0.0000000000
       754       252  TIP3      OH2             4.0424954930       -5.7143069577       11.7929663568  W2        69              0.0000000000
       755       252  TIP3      H1              3.3656554930       -5.5829969577       12.4569363568  W2        69              0.0000000000
       756       252  TIP3      H2              3.5569854930       -5.8693569577       10.9827363568  W2        69              0.0000000000
       757       253  TIP3      OH2            -3.2071545070       -2.1258269577        2.5786163568  W2        70              0.0000000000
       758       253  TIP3      H1             -3.7496445070       -2.5054469577        1.8873763568  W2        70              0.0000000000
       759       253  TIP3      H2             -2.3736645070       -1.9313569577        2.1500263568  W2        70              0.0000000000
       760       254  TIP3      OH2            -5.0720145070        2.4313630423       17.6777763568  W2        71              0.0000000000
       761       254  TIP3      H1             -4.3397745070        2.6859530423       18.2392263568  W2        71              0.0000000000
       762       254  TIP3      H2             -5.8521445070        2.6359030423       18.1933163568  W2        71              0.0000000000
       763       255  TIP3      OH2             0.9572754930       -2.1616369577       10.4157463568  W2        72              0.0000000000
       764       255  TIP3      H1              1.5216154930       -2.7079769577        9.8687063568  W2        72              0.0000000000
       765       255  TIP3      H2              0.8096154930       -2.6834469577       11.2045063568  W2        72              0.0000000000
       766       256  TIP3      OH2            -4.0407545070       -6.0250269577        6.8342263568  W2        73              0.0000000000
       767       256  TIP3      H1             -4.3578045070       -6.9274969577        6.7987663568  W2        73              0.0000000000
       768       256  TIP3      H2             -3.2593445070       -6.0232869577        6.2813863568  W2        73              0.0000000000
       769       257  TIP3      OH2            -0.4161345070       -3.7730269577       12.8297863568  W2        74              0.0000000000
       770       257  TIP3      H1             -1.2516045070       -3.3190769577       12.9400263568  W2        74              0.0000000000
       771       257  TIP3      H2              0.1079254930       -3.4971769577       13.5817763568  W2        74              0.0000000000
       772       258  TIP3      OH2             0.1281254930        2.4397430423        4.5144263568  W2        75              0.0000000000
       773       258  TIP3      H1             -0.6167745070        1.9322730423        4.1922163568  W2        75              0.0000000000
       774       258  TIP3      H2             -0.0061545070        2.4885430423        5.4609063568  W2        75              0.0000000000
       775       259  TIP3      OH2             7.2780154930        1.5725630423       13.3011863568  W2        76              0.0000000000
       776       259  TIP3      H1              7.9198954930        2.0291930423       12.7574063568  W2        76              0.0000000000
       777       259  TIP3      H2              6.4477054930        1.6858030423       12.8385963568  W2        76              0.0000000000
       778       260  TIP3      OH2             4.0258054930       -4.7462669577        2.7136863568  W2        77              0.0000000000
       779       260  TIP3      H1              3.0872254930       -4.6347069577        2.5625663568  W2        77              0.0000000000
       780       260  TIP3      H2              4.3230154930       -3.8895769577        3.0202563568  W2        77              0.0000000000
       781       261  TIP3      OH2             1.6473354930        2.6240730423       15.7513363568  W2        78              0.0000000000
       782       261  TIP3      H1              1.3019454930        2.2423130423       16.5582963568  W2        78              0.0000000000
       783       261  TIP3      H2              1.4473454930        3.5574330423       15.8226263568  W2        78              0.0000000000
       784       262  TIP3      OH2             4.7441554930       -2.8789969577        4.3744263568  W2        79              0.0000000000
       785       262  TIP3      H1              5.6360554930       -3.0164969577        4.6935463568  W2        79              0.0000000000
       786       262  TIP3      H2              4.8005154930       -2.0883869577        3.8377763568  W2        79              0.0000000000
       787       263  TIP3      OH2            -4.7470445070        1.7347430423       10.2842163568  W2        80              0.0000000000
       788       263  TIP3      H1             -4.0023245070        1.7323130423        9.6828663568  W2        80              0.0000000000
       789       263  TIP3      H2             -4.6693845070        0.9111230423       10.7657263568  W2        80              0.0000000000
       790       264  TIP3      OH2             2.2535354930        3.8981730423        3.5398863568  W2        81              0.0000000000
       791       264  TIP3      H1              1.9583754930        4.7249630423        3.9213663568  W2        81              0.0000000000
       792       264  TIP3      H2              1.5505354930        3.2788630423        3.7360263568  W2        81              0.0000000000
       793       265  TIP3      OH2            -7.7390745070        0.1954330423       15.5990663568  W2        82              0.0000000000
       794       265  TIP3      H1             -7.5162145070       -0.2226069577       16.4308163568  W2        82              0.0000000000
       795       265  TIP3      H2             -8.3410645070       -0.4170669577       15.1763463568  W2        82              0.0000000000
       796       266  TIP3      OH2            -0.7225845070       -0.2875769577       17.8120363568  W2        83              0.0000000000
       797       266  TIP3      H1             -1.0185045070       -0.4532769577       16.9169463568  W2        83              0.0000000000
       798       266  TIP3      H2              0.2089354930       -0.5075469577       17.8014263568  W2        83              0.0000000000
       799       267  TIP3      OH2             3.8976954930        5.0856230423       15.7018363568  W2        84              0.0000000000
       800       267  TIP3      H1              2.9971254930        5.2688830423       15.4342263568  W2        84              0.0000000000
       801       267  TIP3      H2              3.9318054930        5.3445530423       16.6227163568  W2        84              0.0000000000
       802       268  TIP3      OH2             7.9241954930        6.1164530423        4.5343063568  W2        85              0.0000000000
       803       268  TIP3      H1              7.5513054930        5.2908330423        4.8433663568  W2        85              0.0000000000
       804       268  TIP3      H2              8.2015454930        5.9333930423        3.6366463568  W2        85              0.0000000000
       805       269  TIP3      OH2             5.0845854930        0.9244030423       11.5554963568  W2        86              0.0000000000
       806       269  TIP3      H1              4.1562754930        0.6925930423       11.5284263568  W2        86              0.0000000000
       807       269  TIP3      H2              5.5356954930        0.1473830423       11.2253763568  W2        86              0.0000000000
       808       270  TIP3      OH2            -2.3721045070        5.2525630423        7.6883663568  W2        87              0.0000000000
       809       270  TIP3      H1             -1.8448845070        6.0260030423        7.4882463568  W2        87              0.0000000000
       810       270  TIP3      H2             -3.2522545070        5.4774830423        7.3867663568  W2        87              0.0000000000
       811       271  TIP3      OH2            -6.6173345070        0.1149730423        2.2756063568  W2        88              0.0000000000
       812       271  TIP3      H1             -6.0013445070        0.7416930423        2.6550863568  W2        88              0.0000000000
       813       271  TIP3      H2             -7.4790745070        0.4309530423        2.5472563568  W2        88              0.0000000000
       814       272  TIP3      OH2            -0.9448745070        2.9155530423        7.2647963568  W2        89              0.0000000000
       815       272  TIP3      H1             -1.1858745070        3.8409930423        7.3063263568  W2        89              0.0000000000
       816       272  TIP3      H2             -1.6855145070        2.4566830423        7.6611863568  W2        89              0.0000000000
       817       273  TIP3      OH2            -0.4302145070        7.0649130423       13.5799063568  W2        90              0.0000000000
       818       273  TIP3      H1             -0.0677445070        7.9194730423       13.3463463568  W2        90              0.0000000000
       819       273  TIP3      H2              0.1013054930        6.7730730423       14.3205363568  W2        90              0.0000000000
       820       274  TIP3      OH2            -2.2617945070        7.9373130423        6.8100163568  W2        91              0.0000000000
       821       274  TIP3      H1             -3.2117445070        8.0430530423        6.8613463568  W2        91              0.0000000000
       822       274  TIP3      H2             -1.9099845070        8.7580530423        7.1547663568  W2        91              0.0000000000
       823       275  TIP3      OH2             3.1138654930        3.1639830423       13.2804663568  W2        92              0.0000000000
       824       275  TIP3      H1              2.6879954930        2.9361530423       14.1068663568  W2        92              0.0000000000
       825       275  TIP3      H2              3.6944454930        2.4251630423       13.0979963568  W2        92              0.0000000000
       826       276  TIP3      OH2             5.3167554930        4.0930330423        2.3543663568  W2        93              0.0000000000
       827       276  TIP3      H1              5.6700654930        3.7130130423        3.1587163568  W2        93              0.0000000000
       828       276  TIP3      H2              4.3681054930        3.9995130423        2.4412963568  W2        93              0.0000000000
       829       277  TIP3      OH2             5.7722854930        7.7159330423       15.7499463568  W2        94              0.0000000000
       830       277  TIP3      H1              5.1706054930        7.1602230423       15.2545763568  W2        94              0.0000000000
       831       277  TIP3      H2              6.0536554930        8.3829130423       15.1236863568  W2        94              0.0000000000
       832       278  TIP3      OH2            -6.1051245070       -5.0512969577       15.1572063568  W2        95              0.0000000000
       833       278  TIP3      H1             -6.9978945070       -4.7127569577       15.0896063568  W2        95              0.0000000000
       834       278  TIP3      H2             -6.2038445070       -5.9066869577       15.5752863568  W2        95              0.0000000000
       835       279  TIP3      OH2             6.1826854930        2.7652330423        4.5811563568  W2        96              0.0000000000
       836       279  TIP3      H1              5.9054454930        2.0371630423        5.1372663568  W2        96              0.0000000000
       837       279  TIP3      H2              7.1099854930        2.8844330423        4.7864163568  W2        96              0.0000000000
       838       280  TIP3      OH2            -6.4539245070        6.7531430423       13.5921463568  W2        97              0.0000000000
       839       280  TIP3      H1             -6.2368945070        5.8213830423       13.5611163568  W2        97              0.0000000000
       840       280  TIP3      H2             -6.2075745070        7.0276430423       14.4754263568  W2        97              0.0000000000
       841       281  TIP3      OH2            -0.5924645070        5.2046430423        0.8013663568  W2        98              0.0000000000
       842       281  TIP3      H1             -0.3534845070        4.4564530423        0.2542563568  W2        98              0.0000000000
       843       281  TIP3      H2             -0.8613345070        4.8168130423        1.6341463568  W2        98              0.0000000000
       844       282  TIP3      OH2            -1.6554045070        4.7750230423        3.2576263568  W2        99              0.0000000000
       845       282  TIP3      H1             -1.5086045070        4.2550030423        4.0477163568  W2        99              0.0000000000
       846       282  TIP3      H2             -1.6582345070        5.6817830423        3.5642163568  W2        99              0.0000000000
       847       283  TIP3      OH2            -5.2022945070        2.0273530423        3.7681663568  W2        100             0.0000000000
       848       283  TIP3      H1             -5.8883645070        2.3796030423        4.3351363568  W2        100             0.0000000000
       849       283  TIP3      H2             -4.6795045070        2.7903130423        3.5215963568  W2        100             0.0000000000
       850       284  TIP3      OH2             2.6292154930       -5.3102669577       14.0470663568  W2        101             0.0000000000
       851       284  TIP3      H1              3.3280054930       -5.2363969577       14.6970363568  W2        101             0.0000000000
       852       284  TIP3      H2              2.2483554930       -6.1747669577       14.2013563568  W2        101             0.0000000000
       853       285  TIP3      OH2             3.4137054930       -5.6580969577        5.1442963568  W2        102             0.0000000000
       854       285  TIP3      H1              3.6335354930       -5.1865569577        4.3408363568  W2        102             0.0000000000
       855       285  TIP3      H2              3.9721054930       -5.2638369577        5.8143563568  W2        102             0.0000000000
       856       286  TIP3      OH2             1.0823154930        6.4723830423        4.0070463568  W2        103             0.0000000000
       857       286  TIP3      H1              0.2659254930        6.9693530423        4.0594763568  W2        103             0.0000000000
       858       286  TIP3      H2              1.6119454930        6.9477330423        3.3669263568  W2        103             0.0000000000
       859       287  TIP3      OH2             0.6136954930       -3.9302169577        5.9791363568  W2        104             0.0000000000
       860       287  TIP3      H1              1.4259554930       -3.4258969577        6.0253063568  W2        104             0.0000000000
       861       287  TIP3      H2              0.3689954930       -4.0752469577        6.8930963568  W2        104             0.0000000000
       862       288  TIP3      OH2             1.1493354930       -2.9439469577       15.1637963568  W2        105             0.0000000000
       863       288  TIP3      H1              1.2683654930       -2.3704069577       15.9208363568  W2        105             0.0000000000
       864       288  TIP3      H2              1.8047954930       -3.6320069577       15.2785763568  W2        105             0.0000000000
       865       289  TIP3      OH2             1.4973654930       -6.8489169577        6.9172463568  W2        106             0.0000000000
       866       289  TIP3      H1              1.1507154930       -6.2318569577        7.5616763568  W2        106             0.0000000000
       867       289  TIP3      H2              2.1560554930       -6.3483469577        6.4357963568  W2        106             0.0000000000
       868       290  TIP3      OH2            -1.5793745070        7.5161030423        3.9887363568  W2        107             0.0000000000
       869       290  TIP3      H1             -1.4185045070        8.3158530423        3.4879963568  W2        107             0.0000000000
       870       290  TIP3      H2             -1.7765945070        7.8227030423        4.8737963568  W2        107             0.0000000000
       871       291  TIP3      OH2            -2.8449345070       -5.7859769577        3.6044963568  W2        108             0.0000000000
       872       291  TIP3      H1             -2.9284545070       -4.8976669577        3.9511363568  W2        108             0.0000000000
       873       291  TIP3      H2             -1.9549045070       -6.0513069577        3.8361763568  W2        108             0.0000000000
       874       292  TIP3      OH2             7.3539154930       -5.0369169577       15.9987663568  W2        109             0.0000000000
       875       292  TIP3      H1              6.4374954930       -4.7747469577       15.9111363568  W2        109             0.0000000000
       876       292  TIP3      H2              7.6894154930       -5.0400169577       15.1022963568  W2        109             0.0000000000
       877       293  TIP3      OH2             5.9560154930       -1.2868169577       10.0944963568  W2        110             0.0000000000
       878       293  TIP3      H1              5.1584554930       -1.7017969577        9.7659963568  W2        110             0.0000000000
       879       293  TIP3      H2              6.4011254930       -1.9774469577       10.5855463568  W2        110             0.0000000000
       880       294  TIP3      OH2            -4.5864045070        4.6412430423        2.6649463568  W2        111             0.0000000000
       881       294  TIP3      H1             -3.9942545070        5.3407230423        2.9411863568  W2        111             0.0000000000
       882       294  TIP3      H2             -4.1271045070        4.2081930423        1.9454063568  W2        111             0.0000000000
       883       295  TIP3      OH2            -6.2704845070       -2.6944569577        1.7808863568  W2        112             0.0000000000
       884       295  TIP3      H1             -6.3152245070       -1.7551469577        1.9595863568  W2        112             0.0000000000
       885       295  TIP3      H2             -7.1581645070       -2.9299669577        1.5110963568  W2        112             0.0000000000
       886       296  TIP3      OH2             7.0424754930        7.9694330423       11.7168463568  W2        113             0.0000000000
       887       296  TIP3      H1              6.8869054930        8.6478730423       11.0597763568  W2        113             0.0000000000
       888       296  TIP3      H2              7.9751154930        8.0413630423       11.9199063568  W2        113             0.0000000000
       889       297  TIP3      OH2            -5.4622845070       -7.9127969577       10.4539863568  W2        114             0.0000000000
       890       297  TIP3      H1             -5.6913045070       -7.8535469577        9.5264863568  W2        114             0.0000000000
       891       297  TIP3      H2             -5.9049445070       -8.7042469577       10.7603963568  W2        114             0.0000000000
       892       298  TIP3      OH2            -6.5319545070        6.0279130423        6.6145663568  W2        115             0.0000000000
       893       298  TIP3      H1             -7.3640945070        6.5001830423        6.6417063568  W2        115             0.0000000000
       894       298  TIP3      H2             -5.9861245070        6.5376730423        6.0158763568  W2        115             0.0000000000
       895       299  TIP3      OH2             1.4457154930        7.0677830423        0.9399663568  W2        118             0.0000000000
       896       299  TIP3      H1              0.8018154930        6.4366430423        1.2613363568  W2        118             0.0000000000
       897       299  TIP3      H2              2.2075454930        6.5365830423        0.7083163568  W2        118             0.0000000000
       898       300  TIP3      OH2             6.0500054930        6.8847730423        1.1737663568  W2        120             0.0000000000
       899       300  TIP3      H1              6.3330454930        6.0902930423        1.6264563568  W2        120             0.0000000000
       900       300  TIP3      H2              6.7897954930        7.1178730423        0.6128763568  W2        120             0.0000000000
       901       301  TIP3      OH2            -2.9952645070        2.7942630423        1.0312563568  W2        122             0.0000000000
       902       301  TIP3      H1             -2.9308545070        2.0002230423        1.5618963568  W2        122             0.0000000000
       903       301  TIP3      H2             -2.3423445070        2.6755430423        0.3414563568  W2        122             0.0000000000
       904       302  TIP3      OH2             2.3570754930        3.8414330423        0.7670563568  W2        124             0.0000000000
       905       302  TIP3      H1              2.0884854930        4.0216430423        1.6679463568  W2        124             0.0000000000
       906       302  TIP3      H2              2.1506354930        2.9160530423        0.6356363568  W2        124             0.0000000000
       907       303  TIP3      OH2             5.0534954930        2.3362330423       15.7146663568  W2        125             0.0000000000
       908       303  TIP3      H1              5.7989754930        2.9246030423       15.5950663568  W2        125             0.0000000000
       909       303  TIP3      H2              4.2961754930        2.9182030423       15.7779763568  W2        125             0.0000000000
       910       304  TIP3      OH2            -1.8458845070        0.7668830423        3.3370563568  W2        127             0.0000000000
       911       304  TIP3      H1             -2.3056845070        0.2827130423        4.0229063568  W2        127             0.0000000000
       912       304  TIP3      H2             -1.5910145070        0.0984230423        2.7011063568  W2        127             0.0000000000
       913       305  TIP3      OH2            -2.5569545070       -1.3404069577       15.6930163568  W2        128             0.0000000000
       914       305  TIP3      H1             -3.1753445070       -0.6657469577       15.9734863568  W2        128             0.0000000000
       915       305  TIP3      H2             -2.2128345070       -1.0190169577       14.8596363568  W2        128             0.0000000000
       916       306  TIP3      OH2            -0.7748445070       -0.9899369577        1.5993763568  W2        129             0.0000000000
       917       306  TIP3      H1             -0.9553445070       -1.1448169577        0.6722063568  W2        129             0.0000000000
       918       306  TIP3      H2              0.1752054930       -0.8820669577        1.6441663568  W2        129             0.0000000000
       919       307  TIP3      OH2            -2.2175845070       -3.9853269577       16.7753263568  W2        131             0.0000000000
       920       307  TIP3      H1             -2.0674945070       -4.7141969577       16.1732963568  W2        131             0.0000000000
       921       307  TIP3      H2             -2.2153445070       -3.2081569577       16.2165463568  W2        131             0.0000000000
       922       308  TIP3      OH2            -1.8050145070       -5.6157469577       14.2680663568  W2        132             0.0000000000
       923       308  TIP3      H1             -1.2692645070       -5.1640769577       13.6159963568  W2        132             0.0000000000
       924       308  TIP3      H2             -2.6570545070       -5.7237669577       13.8454763568  W2        132             0.0000000000
       925       309  TIP3      OH2            -0.2231745070       -0.1761269577       14.5075863568  W2        133             0.0000000000
       926       309  TIP3      H1              0.5273054930       -0.3323769577       13.9343663568  W2        133             0.0000000000
       927       309  TIP3      H2             -0.5623445070        0.6755330423       14.2321363568  W2        133             0.0000000000
       928       310  TIP3      OH2             5.5091654930        0.4275730423       17.6133863568  W2        135             0.0000000000
       929       310  TIP3      H1              5.2276654930        1.1370330423       17.0357663568  W2        135             0.0000000000
       930       310  TIP3      H2              6.4515954930        0.3548730423       17.4625063568  W2        135             0.0000000000
       931       311  TIP3      OH2            -0.9994645070       -8.1591769577       14.6994263568  W2        137             0.0000000000
       932       311  TIP3      H1             -1.0975045070       -7.2128569577       14.5940463568  W2        137             0.0000000000
       933       311  TIP3      H2             -1.7418445070       -8.5317969577       14.2237763568  W2        137             0.0000000000
       934       312  TIP3      OH2             2.9802454930       -4.7102869577       17.3386163568  W2        139             0.0000000000
       935       312  TIP3      H1              2.0327854930       -4.6783169577       17.4709463568  W2        139             0.0000000000
       936       312  TIP3      H2              3.2929154930       -5.3355769577       17.9924363568  W2        139             0.0000000000
       937       313  TIP3      OH2            -7.3091845070        4.3368130423        2.0835463568  W2        144             0.0000000000
       938       313  TIP3      H1             -6.3952645070        4.4157030423        2.3569363568  W2        144             0.0000000000
       939       313  TIP3      H2             -7.3018745070        3.6497730423        1.4171063568  W2        144             0.0000000000
       940       314  TIP3      OH2            -7.7902045070        7.8103630423        8.9655563568  W2        145             0.0000000000
       941       314  TIP3      H1             -8.1245245070        6.9300930423        9.1375763568  W2        145             0.0000000000
       942       314  TIP3      H2             -7.5679645070        8.1558630423        9.8301163568  W2        145             0.0000000000
       943       315  TIP3      OH2             7.7131754930        5.9495330423       14.0983963568  W2        147             0.0000000000
       944       315  TIP3      H1              7.0657054930        6.2746830423       14.7239163568  W2        147             0.0000000000
       945       315  TIP3      H2              7.1955754930        5.5093030423       13.4242263568  W2        147             0.0000000000
       946       316  TIP3      OH2             8.0850354930       -2.5725569577        1.7856363568  W2        148             0.0000000000
       947       316  TIP3      H1              8.1814754930       -1.9058569577        1.1056063568  W2        148             0.0000000000
       948       316  TIP3      H2              7.9449954930       -3.3879269577        1.3041863568  W2        148             0.0000000000
       949       317  TIP3      OH2             7.2545054930       -1.1923169577        7.4066663568  W2        149             0.0000000000
       950       317  TIP3      H1              7.1043854930       -2.1374569577        7.3864463568  W2        149             0.0000000000
       951       317  TIP3      H2              6.9009554930       -0.9111769577        8.2505763568  W2        149             0.0000000000
       952       318  TIP3      OH2            -7.7102545070        0.8859030423       11.4170463568  W2        150             0.0000000000
       953       318  TIP3      H1             -7.5259645070        0.8040730423       10.4813363568  W2        150             0.0000000000
       954       318  TIP3      H2             -6.8609645070        0.7616030423       11.8406863568  W2        150             0.0000000000
       955       319  TIP3      OH2             8.1107954930        0.7780130423       17.0454963568  W2        151             0.0000000000
       956       319  TIP3      H1              8.6935254930        0.0432430423       17.2372163568  W2        151             0.0000000000
       957       319  TIP3      H2              8.6747254930        1.5500430423       17.0920763568  W2        151             0.0000000000
       958       320  TIP3      OH2             7.3324154930       -5.1645769577        0.9031863568  W2        152             0.0000000000
       959       320  TIP3      H1              7.9429954930       -5.5358969577        1.5400063568  W2        152             0.0000000000
       960       320  TIP3      H2              6.4955654930       -5.5858869577        1.0991863568  W2        152             0.0000000000
       961       321  TIP3      OH2             6.9649854930       -3.6097369577        5.8691763568  W2        153             0.0000000000
       962       321  TIP3      H1              7.2446954930       -4.5166969577        5.9933463568  W2        153             0.0000000000
       963       321  TIP3      H2              7.7241554930       -3.1755869577        5.4800963568  W2        153             0.0000000000
       964       322  TIP3      OH2             7.5768154930       -3.0279969577       11.3050663568  W2        154             0.0000000000
       965       322  TIP3      H1              8.5096154930       -2.8160069577       11.2706663568  W2        154             0.0000000000
       966       322  TIP3      H2              7.3415654930       -2.9267869577       12.2273663568  W2        154             0.0000000000
       967       323  TIP3      OH2             7.6060054930       -2.2914669577       14.0810063568  W2        155             0.0000000000
       968       323  TIP3      H1              6.7631354930       -2.0234269577       14.4469863568  W2        155             0.0000000000
       969       323  TIP3      H2              8.0484354930       -1.4692769577       13.8701163568  W2        155             0.0000000000
       970       324  TIP3      OH2            -8.1127745070       -3.8435969577       17.5579263568  W2        156             0.0000000000
       971       324  TIP3      H1             -7.1932845070       -3.9657669577       17.7942363568  W2        156             0.0000000000
       972       324  TIP3      H2             -8.5623245070       -4.5936269577       17.9472763568  W2        156             0.0000000000
       973       325  TIP3      OH2             7.5784654930       -6.3468069577        5.9173763568  W2        157             0.0000000000
       974       325  TIP3      H1              7.7609654930       -6.7956569577        6.7428763568  W2        157             0.0000000000
       975       325  TIP3      H2              6.9787554930       -6.9313669577        5.4538363568  W2        157             0.0000000000
       976       326  TIP3      OH2            -6.8915245070       -5.5314369577       10.4492163568  W2        158             0.0000000000
       977       326  TIP3      H1             -6.4463645070       -6.3231869577       10.7511863568  W2        158             0.0000000000
       978       326  TIP3      H2             -6.4252245070       -4.8149169577       10.8797763568  W2        158             0.0000000000
       979       327  TIP3      OH2            -8.5874945070       -2.5321369577       11.5182363568  W2        159             0.0000000000
       980       327  TIP3      H1             -8.0955145070       -2.7530869577       10.7274363568  W2        159             0.0000000000
       981       327  TIP3      H2             -8.2254045070       -1.6917969577       11.7991863568  W2        159             0.0000000000
       982       328  TIP3      OH2            -8.2738445070       -6.2742269577        5.5724763568  W2        160             0.0000000000
       983       328  TIP3      H1             -9.1990045070       -6.0655669577        5.4430263568  W2        160             0.0000000000
       984       328  TIP3      H2             -7.8198545070       -5.7901469577        4.8827063568  W2        160             0.0000000000
       985       329  TIP3      OH2             6.4968754930        8.7099430423        7.5182163568  W2        161             0.0000000000
       986       329  TIP3      H1              7.1491654930        8.3621530423        6.9101263568  W2        161             0.0000000000
       987       329  TIP3      H2              7.0072554930        9.1982630423        8.1641863568  W2        161             0.0000000000
       988       330  TIP3      OH2            -3.1640845070        6.6132030423       14.3197063568  W2        164             0.0000000000
       989       330  TIP3      H1             -3.5889745070        7.4230530423       14.0371663568  W2        164             0.0000000000
       990       330  TIP3      H2             -2.2598045070        6.6986130423       14.0176863568  W2        164             0.0000000000
       991       331  TIP3      OH2             1.1470554930        8.0122030423       17.2790763568  W2        165             0.0000000000
       992       331  TIP3      H1              1.3318054930        7.6788130423       18.1571063568  W2        165             0.0000000000
       993       331  TIP3      H2              1.9935054930        8.3220630423       16.9569963568  W2        165             0.0000000000
       994       332  TIP3      OH2             8.4094754930       -8.1123569577       15.6027163568  W2        166             0.0000000000
       995       332  TIP3      H1              7.5968254930       -7.7873269577       15.2151863568  W2        166             0.0000000000
       996       332  TIP3      H2              8.6423254930       -8.8725069577       15.0696263568  W2        166             0.0000000000
       997       333  TIP3      OH2             3.7430354930        8.2358330423       13.5175863568  W2        167             0.0000000000
       998       333  TIP3      H1              2.8384054930        8.4008530423       13.2517963568  W2        167             0.0000000000
       999       333  TIP3      H2              4.1718954930        9.0890530423       13.4519263568  W2        167             0.0000000000
      1000       334  TIP3      OH2            -6.3476045070        8.4928430423       11.2774163568  W2        168             0.0000000000
      1001       334  TIP3      H1             -6.3660045070        8.0673530423       12.1346463568  W2        168             0.0000000000
      1002       334  TIP3      H2             -5.5428145070        8.1743430423       10.8686363568  W2        168             0.0000000000
      1003       335  TIP3      OH2            -4.2062945070        7.2027130423        9.9324063568  W2        169             0.0000000000
      1004       335  TIP3      H1             -4.4252245070        6.2864530423       10.1020063568  W2        169             0.0000000000
      1005       335  TIP3      H2             -3.3820745070        7.3427530423       10.3985463568  W2        169             0.0000000000
      1006       336  TIP3      OH2            -1.6690445070        7.6726430423       10.7812063568  W2        170             0.0000000000
      1007       336  TIP3      H1             -1.4564745070        6.7845430423       10.4942963568  W2        170             0.0000000000
      1008       336  TIP3      H2             -1.6045345070        7.6384130423       11.7356063568  W2        170             0.0000000000
      1009       337  TIP3      OH2             1.8393254930       -6.6632969577        9.9255363568  W2        171             0.0000000000
      1010       337  TIP3      H1              1.1650054930       -7.2927369577       10.1811163568  W2        171             0.0000000000
      1011       337  TIP3      H2              2.4032454930       -7.1474069577        9.3223263568  W2        171             0.0000000000
      1012       338  TIP3      OH2             6.9820454930       -8.5558969577       10.0382463568  W2        172             0.0000000000
      1013       338  TIP3      H1              7.5858054930       -8.0083569577        9.5363463568  W2        172             0.0000000000
      1014       338  TIP3      H2              6.1122454930       -8.2368569577        9.7976563568  W2        172             0.0000000000
      1015       339  TIP3      OH2            -5.8339245070       -8.0292669577        7.7475263568  W2        173             0.0000000000
      1016       339  TIP3      H1             -6.6109445070       -8.2637769577        7.2401163568  W2        173             0.0000000000
      1017       339  TIP3      H2             -5.3035645070       -8.8260569577        7.7563263568  W2        173             0.0000000000
      1018       340  TIP3      OH2            -6.9975845070       -8.2314569577        3.5511363568  W2        174             0.0000000000
      1019       340  TIP3      H1             -6.5585145070       -7.6204069577        2.9594863568  W2        174             0.0000000000
      1020       340  TIP3      H2             -7.6313445070       -7.6930469577        4.0251363568  W2        174             0.0000000000
      1021       341  TIP3      OH2            -1.2546645070       -8.1025569577        7.5608363568  W2        175             0.0000000000
      1022       341  TIP3      H1             -0.3803245070       -7.7141269577        7.5312663568  W2        175             0.0000000000
      1023       341  TIP3      H2             -1.3905845070       -8.3177769577        8.4835563568  W2        175             0.0000000000
      1024       342  TIP3      OH2             4.3021754930       -8.0725769577        9.2100063568  W2        176             0.0000000000
      1025       342  TIP3      H1              4.3783354930       -7.9774169577        8.2606063568  W2        176             0.0000000000
      1026       342  TIP3      H2              4.0270954930       -8.9802869577        9.3389163568  W2        176             0.0000000000
      1027       343  TIP3      OH2             5.6554354930       -8.0467969577        4.9025063568  W2        177             0.0000000000
      1028       343  TIP3      H1              4.9525454930       -7.4318769577        4.6926463568  W2        177             0.0000000000
      1029       343  TIP3      H2              5.2105754930       -8.8841269577        5.0335963568  W2        177             0.0000000000
      1030       344  TIP3      OH2            -7.0966345070        7.7167630423        4.4486463568  W2        178             0.0000000000
      1031       344  TIP3      H1             -7.7816445070        7.6786530423        3.7811563568  W2        178             0.0000000000
      1032       344  TIP3      H2             -7.0929145070        8.6295230423        4.7368563568  W2        178             0.0000000000
      1033       345  TIP3      OH2            -5.1366745070       -6.3153069577        1.9935463568  W2        179             0.0000000000
      1034       345  TIP3      H1             -4.6453345070       -6.9450669577        1.4660963568  W2        179             0.0000000000
      1035       345  TIP3      H2             -4.5130445070       -6.0193669577        2.6566663568  W2        179             0.0000000000
      1036       346  TIP3      OH2            -0.1106645070       -6.0221569577        4.4505963568  W2        180             0.0000000000
      1037       346  TIP3      H1              0.0674654930       -6.6688369577        5.1334563568  W2        180             0.0000000000
      1038       346  TIP3      H2             -0.1640445070       -5.1883869577        4.9177063568  W2        180             0.0000000000
      1039       347  TIP3      OH2             1.7677154930        8.9262530423        2.8462663568  W2        181             0.0000000000
      1040       347  TIP3      H1              2.6337354930        9.2929930423        2.6680863568  W2        181             0.0000000000
      1041       347  TIP3      H2              1.5209954930        8.4870530423        2.0323463568  W2        181             0.0000000000
      1042       348  TIP3      OH2            -5.8761245070       -7.5150769577       17.2651463568  W2        182             0.0000000000
      1043       348  TIP3      H1             -6.2423045070       -8.2808169577       17.7076163568  W2        182             0.0000000000
      1044       348  TIP3      H2             -4.9632745070       -7.4860569577       17.5516563568  W2        182             0.0000000000
      1045       349  TIP3      OH2            -5.2785145070        8.6368430423        1.4738563568  W2        184             0.0000000000
      1046       349  TIP3      H1             -5.5460545070        8.9231330423        2.3471663568  W2        184             0.0000000000
      1047       349  TIP3      H2             -4.5072545070        8.0907630423        1.6261063568  W2        184             0.0000000000
      1048       350  TIP3      OH2             7.6942954930        7.2405230423       17.6755563568  W2        186             0.0000000000
      1049       350  TIP3      H1              6.9124854930        7.0543230423       17.1556163568  W2        186             0.0000000000
      1050       350  TIP3      H2              7.6222854930        8.1699530423       17.8928063568  W2        186             0.0000000000
